REMARK  Name = 
REMARK  7 active torsions:
REMARK  status: ('A' for Active; 'I' for Inactive)
REMARK    1  A    between atoms: C_2  and  C_3
REMARK    2  A    between atoms: N_5  and  C_6
REMARK    3  A    between atoms: C_8  and  O_12
REMARK    4  A    between atoms: O_12  and  C_13
REMARK    5  A    between atoms: C_19  and  C_22
REMARK    6  A    between atoms: N_28  and  C_29
REMARK    7  A    between atoms: C_32  and  N_35
REMARK                            x       y       z     vdW  Elec       q    Type
REMARK                         _______ _______ _______ _____ _____    ______ ____
ROOT
ATOM      1  C   UNL     1      -1.579  -0.690  -0.221  0.00  0.00    +0.235 A 
ATOM      2  C   UNL     1      -1.087  -1.708  -1.035  0.00  0.00    +0.088 A 
ATOM      3  C   UNL     1      -1.669  -2.796  -1.667  0.00  0.00    +0.014 A 
ATOM      4  C   UNL     1      -0.615  -3.478  -2.276  0.00  0.00    +0.093 A 
ATOM      5  N   UNL     1       0.557  -2.841  -2.053  0.00  0.00    -0.345 N 
ATOM      6  H   UNL     1       1.501  -3.123  -2.396  0.00  0.00    +0.167 HD
ATOM      7  C   UNL     1       0.249  -1.773  -1.301  0.00  0.00    +0.148 A 
ATOM      8  N   UNL     1       1.125  -0.851  -0.834  0.00  0.00    -0.196 NA
ATOM      9  C   UNL     1       0.648   0.170  -0.058  0.00  0.00    +0.224 A 
ATOM     10  N   UNL     1       1.527   1.190   0.436  0.00  0.00    -0.283 N 
ATOM     11  H   UNL     1       1.087   2.078   0.772  0.00  0.00    +0.155 HD
ATOM     12  N   UNL     1      -0.690   0.245   0.227  0.00  0.00    -0.178 NA
ENDROOT
BRANCH   3  13
ATOM     13  C   UNL     1      -3.096  -3.168  -1.733  0.00  0.00    -0.013 A 
ATOM     14  C   UNL     1      -3.489  -4.496  -1.514  0.00  0.00    +0.028 A 
ATOM     15  C   UNL     1      -4.843  -4.834  -1.582  0.00  0.00    +0.111 A 
ATOM     16  N   UNL     1      -5.770  -3.883  -1.873  0.00  0.00    -0.263 NA
ATOM     17  C   UNL     1      -5.416  -2.593  -2.114  0.00  0.00    +0.111 A 
ATOM     18  C   UNL     1      -4.072  -2.214  -2.058  0.00  0.00    +0.028 A 
ENDBRANCH   3  13
BRANCH  10  19
ATOM     19  C   UNL     1       2.962   1.107   0.430  0.00  0.00    +0.034 A 
ATOM     20  C   UNL     1       3.631  -0.108   0.654  0.00  0.00    +0.025 A 
ATOM     21  C   UNL     1       5.028  -0.152   0.678  0.00  0.00    +0.025 A 
ATOM     22  C   UNL     1       5.782   1.021   0.505  0.00  0.00    +0.030 A 
ATOM     23  C   UNL     1       5.110   2.238   0.305  0.00  0.00    +0.025 A 
ATOM     24  C   UNL     1       3.714   2.280   0.275  0.00  0.00    +0.025 A 
BRANCH  22  25
ATOM     25  N   UNL     1       7.223   0.975   0.518  0.00  0.00    -0.326 N 
ATOM     26  C   UNL     1       7.915  -0.083  -0.237  0.00  0.00    +0.133 C 
ATOM     27  C   UNL     1       9.387   0.271  -0.570  0.00  0.00    +0.178 C 
ATOM     28  O   UNL     1       9.782   1.553  -0.122  0.00  0.00    -0.377 OA
ATOM     29  C   UNL     1       9.464   1.696   1.243  0.00  0.00    +0.178 C 
ATOM     30  C   UNL     1       7.963   1.908   1.380  0.00  0.00    +0.133 C 
ENDBRANCH  22  25
ENDBRANCH  10  19
BRANCH   1  31
ATOM     31  O   UNL     1      -2.941  -0.633   0.102  0.00  0.00    -0.437 OA
BRANCH  31  36
ATOM     32  C   UNL     1      -5.561   1.514   1.598  0.00  0.00    +0.037 A 
ATOM     33  C   UNL     1      -4.882   2.041   2.707  0.00  0.00    +0.023 A 
ATOM     34  C   UNL     1      -3.557   1.682   2.962  0.00  0.00    +0.005 A 
ATOM     35  C   UNL     1      -2.893   0.795   2.114  0.00  0.00    +0.046 A 
ATOM     36  C   UNL     1      -3.553   0.265   0.989  0.00  0.00    +0.132 A 
ATOM     37  C   UNL     1      -4.891   0.606   0.757  0.00  0.00    +0.069 A 
BRANCH  32  39
ATOM     38  C   UNL     1      -7.579   1.910   0.101  0.00  0.00    +0.241 C 
ATOM     39  N   UNL     1      -6.943   1.860   1.387  0.00  0.00    -0.282 N 
ATOM     40  H   UNL     1      -7.503   2.172   2.213  0.00  0.00    +0.155 HD
ATOM     41  O   UNL     1      -6.885   1.942  -0.955  0.00  0.00    -0.271 OA
BRANCH  38  43
ATOM     42  C   UNL     1      -9.707   2.047  -1.138  0.00  0.00    +0.013 C 
ATOM     43  C   UNL     1      -9.049   1.987   0.023  0.00  0.00    +0.060 C 
ENDBRANCH  38  43
ENDBRANCH  32  39
ENDBRANCH  31  36
ENDBRANCH   1  31
TORSDOF 7
