REMARK  Name = 
REMARK  16 active torsions:
REMARK  status: ('A' for Active; 'I' for Inactive)
REMARK    1  A    between atoms: C_1  and  C_2
REMARK    2  A    between atoms: C_2  and  C_3
REMARK    3  A    between atoms: C_2  and  N_7
REMARK    4  A    between atoms: C_3  and  C_4
REMARK    5  A    between atoms: C_3  and  C_5
REMARK    6  A    between atoms: C_3  and  C_6
REMARK    7  A    between atoms: N_7  and  C_8
REMARK    8  A    between atoms: N_7  and  C_9
REMARK    9  A    between atoms: C_9  and  C_10
REMARK   10  A    between atoms: N_16  and  C_32
REMARK   11  A    between atoms: C_20  and  C_22
REMARK   12  A    between atoms: C_25  and  C_27
REMARK   13  A    between atoms: C_32  and  C_33
REMARK   14  A    between atoms: C_33  and  C_34
REMARK   15  A    between atoms: C_33  and  C_35
REMARK   16  A    between atoms: C_33  and  O_36
REMARK                            x       y       z     vdW  Elec       q    Type
REMARK                         _______ _______ _______ _____ _____    ______ ____
ROOT
ATOM      1  C   UNL     1      -2.644   0.601   1.278  0.00  0.00    -0.031 A 
ATOM      2  C   UNL     1      -2.133  -0.216   2.320  0.00  0.00    +0.007 A 
ATOM      3  C   UNL     1      -0.784  -0.612   2.325  0.00  0.00    +0.028 A 
ATOM      4  C   UNL     1       0.025  -0.182   1.270  0.00  0.00    +0.070 A 
ATOM      5  N   UNL     1       1.330  -0.422   1.046  0.00  0.00    -0.309 N 
ATOM      6  C   UNL     1       1.582   0.239  -0.117  0.00  0.00    +0.203 A 
ATOM      7  N   UNL     1       2.862   0.265  -0.756  0.00  0.00    -0.251 N 
ATOM      8  H   UNL     1       2.908   0.015  -1.770  0.00  0.00    +0.158 HD
ATOM      9  C   UNL     1       4.010   0.844  -0.122  0.00  0.00    +0.257 C 
ATOM     10  O   UNL     1       3.863   1.587   0.886  0.00  0.00    -0.269 OA
ATOM     11  N   UNL     1       0.498   0.865  -0.643  0.00  0.00    -0.214 NA
ATOM     12  C   UNL     1      -0.466   0.590   0.256  0.00  0.00    +0.091 A 
ATOM     13  C   UNL     1      -1.795   1.006   0.224  0.00  0.00    +0.034 A 
ENDROOT
BRANCH   9  14
ATOM     14  C   UNL     1       5.364   0.599  -0.641  0.00  0.00    +0.075 A 
ATOM     15  S   UNL     1       6.756   1.378  -0.102  0.00  0.00    -0.084 S 
ATOM     16  C   UNL     1       7.823   0.558  -1.114  0.00  0.00    +0.023 A 
ATOM     17  C   UNL     1       7.099  -0.350  -1.880  0.00  0.00    +0.017 A 
ATOM     18  C   UNL     1       5.725  -0.329  -1.615  0.00  0.00    +0.021 A 
BRANCH  16  19
ATOM     19  C   UNL     1       9.278   0.769  -1.161  0.00  0.00    +0.026 A 
ATOM     20  C   UNL     1      10.018   1.654  -0.400  0.00  0.00    +0.143 A 
ATOM     21  N   UNL     1      11.318   1.549  -0.740  0.00  0.00    -0.182 NA
ATOM     22  N   UNL     1      11.416   0.629  -1.687  0.00  0.00    -0.284 N 
ATOM     23  H   UNL     1      12.314   0.348  -2.139  0.00  0.00    +0.188 HD
ATOM     24  C   UNL     1      10.198   0.132  -1.969  0.00  0.00    +0.114 A 
ENDBRANCH  16  19
ENDBRANCH   9  14
BRANCH   1  25
ATOM     25  C   UNL     1      -4.081   1.054   1.305  0.00  0.00    +0.119 C 
BRANCH  25  26
ATOM     26  N   UNL     1      -4.837   0.567   0.128  0.00  0.00    -0.298 NA
ATOM     27  C   UNL     1      -4.883  -0.911   0.104  0.00  0.00    +0.105 C 
BRANCH  26  29
ATOM     28  C   UNL     1      -7.321   0.455   0.702  0.00  0.00    +0.024 C 
ATOM     29  C   UNL     1      -6.172   1.240   0.018  0.00  0.00    +0.059 C 
BRANCH  29  30
ATOM     30  C   UNL     1      -6.469   1.694  -1.461  0.00  0.00    -0.022 C 
ATOM     31  C   UNL     1      -5.346   2.647  -1.931  0.00  0.00    +0.012 C 
ATOM     32  C   UNL     1      -6.541   0.511  -2.451  0.00  0.00    +0.012 C 
ATOM     33  C   UNL     1      -7.806   2.473  -1.529  0.00  0.00    +0.012 C 
ENDBRANCH  29  30
ENDBRANCH  26  29
ENDBRANCH  25  26
ENDBRANCH   1  25
BRANCH   5  34
ATOM     34  C   UNL     1       2.242  -1.266   1.831  0.00  0.00    +0.159 C 
BRANCH  34  35
ATOM     35  C   UNL     1       2.326  -2.721   1.297  0.00  0.00    +0.078 C 
ATOM     36  C   UNL     1       3.354  -3.492   2.141  0.00  0.00    +0.043 C 
ATOM     37  C   UNL     1       0.964  -3.442   1.401  0.00  0.00    +0.043 C 
BRANCH  35  38
ATOM     38  O   UNL     1       2.784  -2.727  -0.035  0.00  0.00    -0.387 OA
ATOM     39  H   UNL     1       2.043  -2.428  -0.624  0.00  0.00    +0.210 HD
ENDBRANCH  35  38
ENDBRANCH  34  35
ENDBRANCH   5  34
TORSDOF 9
