REMARK  Name = 
REMARK  12 active torsions:
REMARK  status: ('A' for Active; 'I' for Inactive)
REMARK    1  A    between atoms: C_1  and  C_2
REMARK    2  A    between atoms: C_2  and  C_3
REMARK    3  A    between atoms: C_2  and  C_4
REMARK    4  A    between atoms: C_2  and  O_37
REMARK    5  A    between atoms: C_4  and  N_5
REMARK    6  A    between atoms: C_9  and  C_12
REMARK    7  A    between atoms: C_12  and  N_13
REMARK    8  A    between atoms: N_13  and  C_14
REMARK    9  A    between atoms: N_13  and  C_15
REMARK   10  A    between atoms: C_15  and  C_16
REMARK   11  A    between atoms: C_25  and  C_27
REMARK   12  A    between atoms: C_30  and  C_32
REMARK                            x       y       z     vdW  Elec       q    Type
REMARK                         _______ _______ _______ _____ _____    ______ ____
ROOT
ATOM      1  N   UNL     1       0.491  -0.856  -0.407  0.00  0.00    -0.309 N 
ATOM      2  C   UNL     1       1.090   0.367  -0.465  0.00  0.00    +0.203 A 
ATOM      3  N   UNL     1       2.461   0.608  -0.130  0.00  0.00    -0.251 N 
ATOM      4  H   UNL     1       3.018   1.201  -0.784  0.00  0.00    +0.158 HD
ATOM      5  C   UNL     1       2.991   0.328   1.173  0.00  0.00    +0.257 C 
ATOM      6  O   UNL     1       2.215  -0.006   2.110  0.00  0.00    -0.269 OA
ATOM      7  N   UNL     1       0.281   1.355  -0.924  0.00  0.00    -0.214 NA
ATOM      8  C   UNL     1      -0.882   0.714  -1.134  0.00  0.00    +0.091 A 
ATOM      9  C   UNL     1      -2.071   1.257  -1.612  0.00  0.00    +0.034 A 
ATOM     10  C   UNL     1      -3.182   0.398  -1.765  0.00  0.00    -0.031 A 
ATOM     11  C   UNL     1      -3.052  -0.980  -1.449  0.00  0.00    +0.007 A 
ATOM     12  C   UNL     1      -1.833  -1.497  -0.976  0.00  0.00    +0.028 A 
ATOM     13  C   UNL     1      -0.764  -0.611  -0.828  0.00  0.00    +0.070 A 
ENDROOT
BRANCH   5  14
ATOM     14  C   UNL     1       4.434   0.453   1.438  0.00  0.00    +0.075 A 
ATOM     15  S   UNL     1       5.615   0.844   0.303  0.00  0.00    -0.084 S 
ATOM     16  C   UNL     1       6.916   0.782   1.369  0.00  0.00    +0.023 A 
ATOM     17  C   UNL     1       6.439   0.448   2.632  0.00  0.00    +0.017 A 
ATOM     18  C   UNL     1       5.052   0.263   2.670  0.00  0.00    +0.021 A 
BRANCH  16  19
ATOM     19  C   UNL     1       8.319   1.049   1.015  0.00  0.00    +0.026 A 
ATOM     20  C   UNL     1       8.820   1.375  -0.231  0.00  0.00    +0.143 A 
ATOM     21  N   UNL     1      10.152   1.552  -0.138  0.00  0.00    -0.182 NA
ATOM     22  N   UNL     1      10.502   1.347   1.123  0.00  0.00    -0.284 N 
ATOM     23  H   UNL     1      11.480   1.419   1.480  0.00  0.00    +0.188 HD
ATOM     24  C   UNL     1       9.415   1.040   1.852  0.00  0.00    +0.114 A 
ENDBRANCH  16  19
ENDBRANCH   5  14
BRANCH   1  25
ATOM     25  C   UNL     1       1.099  -2.164  -0.122  0.00  0.00    +0.159 C 
BRANCH  25  27
ATOM     26  C   UNL     1       2.119  -4.272  -1.029  0.00  0.00    +0.043 C 
ATOM     27  C   UNL     1       1.600  -2.871  -1.406  0.00  0.00    +0.078 C 
ATOM     28  C   UNL     1       2.738  -2.063  -2.062  0.00  0.00    +0.043 C 
BRANCH  27  29
ATOM     29  O   UNL     1       0.525  -3.000  -2.305  0.00  0.00    -0.387 OA
ATOM     30  H   UNL     1       0.863  -3.443  -3.128  0.00  0.00    +0.210 HD
ENDBRANCH  27  29
ENDBRANCH  25  27
ENDBRANCH   1  25
BRANCH  10  31
ATOM     31  C   UNL     1      -4.502   0.944  -2.270  0.00  0.00    +0.119 C 
BRANCH  31  32
ATOM     32  N   UNL     1      -5.386   1.452  -1.195  0.00  0.00    -0.297 NA
ATOM     33  C   UNL     1      -4.812   2.627  -0.513  0.00  0.00    +0.105 C 
BRANCH  32  34
ATOM     34  C   UNL     1      -5.776   0.397  -0.238  0.00  0.00    +0.121 C 
BRANCH  34  35
ATOM     35  C   UNL     1      -7.016   0.798   0.515  0.00  0.00    -0.015 A 
ATOM     36  C   UNL     1      -6.946   1.208   1.854  0.00  0.00    +0.008 A 
ATOM     37  C   UNL     1      -8.105   1.602   2.525  0.00  0.00    +0.020 A 
ATOM     38  C   UNL     1      -9.326   1.585   1.849  0.00  0.00    +0.111 A 
ATOM     39  N   UNL     1      -9.379   1.192   0.549  0.00  0.00    -0.263 NA
ATOM     40  C   UNL     1      -8.264   0.805  -0.127  0.00  0.00    +0.115 A 
ENDBRANCH  34  35
ENDBRANCH  32  34
ENDBRANCH  31  32
ENDBRANCH  10  31
TORSDOF 9
