REMARK  Name = 
REMARK  13 active torsions:
REMARK  status: ('A' for Active; 'I' for Inactive)
REMARK    1  A    between atoms: C_1  and  C_2
REMARK    2  A    between atoms: C_2  and  C_3
REMARK    3  A    between atoms: C_2  and  C_4
REMARK    4  A    between atoms: C_4  and  N_5
REMARK    5  A    between atoms: N_5  and  C_6
REMARK    6  A    between atoms: C_6  and  C_7
REMARK    7  A    between atoms: N_13  and  C_29
REMARK    8  A    between atoms: C_17  and  C_19
REMARK    9  A    between atoms: C_22  and  C_24
REMARK   10  A    between atoms: C_29  and  C_30
REMARK   11  A    between atoms: C_30  and  C_31
REMARK   12  A    between atoms: C_30  and  C_32
REMARK   13  A    between atoms: C_30  and  O_33
REMARK                            x       y       z     vdW  Elec       q    Type
REMARK                         _______ _______ _______ _____ _____    ______ ____
ROOT
ATOM      1  C   UNL     1      -3.647  -0.151  -1.868  0.00  0.00    -0.031 A 
ATOM      2  C   UNL     1      -3.400  -1.396  -1.232  0.00  0.00    +0.007 A 
ATOM      3  C   UNL     1      -2.098  -1.764  -0.854  0.00  0.00    +0.028 A 
ATOM      4  C   UNL     1      -1.063  -0.866  -1.125  0.00  0.00    +0.070 A 
ATOM      5  N   UNL     1       0.253  -0.978  -0.864  0.00  0.00    -0.309 N 
ATOM      6  C   UNL     1       0.777   0.178  -1.367  0.00  0.00    +0.203 A 
ATOM      7  N   UNL     1       2.165   0.521  -1.303  0.00  0.00    -0.251 N 
ATOM      8  H   UNL     1       2.422   1.476  -0.964  0.00  0.00    +0.158 HD
ATOM      9  C   UNL     1       3.185  -0.319  -1.869  0.00  0.00    +0.257 C 
ATOM     10  O   UNL     1       2.873  -1.221  -2.698  0.00  0.00    -0.269 OA
ATOM     11  N   UNL     1      -0.147   1.018  -1.898  0.00  0.00    -0.214 NA
ATOM     12  C   UNL     1      -1.294   0.332  -1.742  0.00  0.00    +0.091 A 
ATOM     13  C   UNL     1      -2.573   0.730  -2.123  0.00  0.00    +0.034 A 
ENDROOT
BRANCH   9  14
ATOM     14  C   UNL     1       4.597  -0.145  -1.485  0.00  0.00    +0.075 A 
ATOM     15  S   UNL     1       5.176   0.927  -0.321  0.00  0.00    -0.084 S 
ATOM     16  C   UNL     1       6.791   0.468  -0.440  0.00  0.00    +0.023 A 
ATOM     17  C   UNL     1       6.895  -0.538  -1.393  0.00  0.00    +0.017 A 
ATOM     18  C   UNL     1       5.668  -0.884  -1.974  0.00  0.00    +0.021 A 
BRANCH  16  19
ATOM     19  C   UNL     1       7.897   1.037   0.348  0.00  0.00    +0.026 A 
ATOM     20  C   UNL     1       9.233   0.683   0.302  0.00  0.00    +0.143 A 
ATOM     21  N   UNL     1       9.922   1.454   1.167  0.00  0.00    -0.182 NA
ATOM     22  N   UNL     1       9.063   2.276   1.754  0.00  0.00    -0.284 N 
ATOM     23  H   UNL     1       9.327   2.992   2.470  0.00  0.00    +0.188 HD
ATOM     24  C   UNL     1       7.825   2.051   1.281  0.00  0.00    +0.114 A 
ENDBRANCH  16  19
ENDBRANCH   9  14
BRANCH   1  25
ATOM     25  C   UNL     1      -5.057   0.250  -2.229  0.00  0.00    +0.116 C 
BRANCH  25  26
ATOM     26  N   UNL     1      -5.645   1.161  -1.237  0.00  0.00    -0.312 NA
ATOM     27  H   UNL     1      -5.030   2.002  -1.145  0.00  0.00    +0.122 HD
BRANCH  26  28
ATOM     28  C   UNL     1      -5.796   0.532   0.085  0.00  0.00    +0.084 C 
BRANCH  28  30
ATOM     29  C   UNL     1      -6.706   2.659   1.167  0.00  0.00    +0.008 C 
ATOM     30  C   UNL     1      -6.960   1.171   0.869  0.00  0.00    -0.003 C 
ATOM     31  C   UNL     1      -8.297   0.976   0.137  0.00  0.00    +0.008 C 
ENDBRANCH  28  30
ENDBRANCH  26  28
ENDBRANCH  25  26
ENDBRANCH   1  25
BRANCH   5  32
ATOM     32  C   UNL     1       0.923  -2.022  -0.070  0.00  0.00    +0.159 C 
BRANCH  32  33
ATOM     33  C   UNL     1       0.909  -1.708   1.453  0.00  0.00    +0.078 C 
ATOM     34  C   UNL     1       1.745  -0.455   1.766  0.00  0.00    +0.043 C 
ATOM     35  C   UNL     1       1.508  -2.902   2.229  0.00  0.00    +0.043 C 
BRANCH  33  36
ATOM     36  O   UNL     1      -0.408  -1.472   1.893  0.00  0.00    -0.387 OA
ATOM     37  H   UNL     1      -0.920  -2.313   1.798  0.00  0.00    +0.210 HD
ENDBRANCH  33  36
ENDBRANCH  32  33
ENDBRANCH   5  32
TORSDOF 9
