REMARK  Name = 
REMARK  8 active torsions:
REMARK  status: ('A' for Active; 'I' for Inactive)
REMARK    1  A    between atoms: C_1  and  C_2
REMARK    2  A    between atoms: C_2  and  C_3
REMARK    3  A    between atoms: C_3  and  C_4
REMARK    4  A    between atoms: C_3  and  C_6
REMARK    5  A    between atoms: C_3  and  O_26
REMARK    6  A    between atoms: C_4  and  C_5
REMARK    7  A    between atoms: C_13  and  C_15
REMARK    8  A    between atoms: C_21  and  C_23
REMARK                            x       y       z     vdW  Elec       q    Type
REMARK                         _______ _______ _______ _____ _____    ______ ____
ROOT
ATOM      1  C   UNL     1      -2.414   0.104  -0.242  0.00  0.00    -0.014 A 
ATOM      2  C   UNL     1      -2.726   0.827   0.951  0.00  0.00    +0.007 A 
ATOM      3  C   UNL     1      -1.712   1.337   1.781  0.00  0.00    +0.010 A 
ATOM      4  C   UNL     1      -0.392   1.133   1.401  0.00  0.00    +0.000 A 
ATOM      5  C   UNL     1       0.784   1.523   2.002  0.00  0.00    +0.037 A 
ATOM      6  C   UNL     1       1.789   1.055   1.158  0.00  0.00    +0.069 A 
ATOM      7  N   UNL     1       1.263   0.410   0.089  0.00  0.00    -0.353 N 
ATOM      8  H   UNL     1       1.774  -0.038  -0.702  0.00  0.00    +0.166 HD
ATOM      9  C   UNL     1      -0.070   0.466   0.253  0.00  0.00    +0.047 A 
ATOM     10  C   UNL     1      -1.046  -0.052  -0.592  0.00  0.00    +0.032 A 
ENDROOT
BRANCH   6  11
ATOM     11  C   UNL     1       3.230   1.238   1.393  0.00  0.00    +0.123 A 
ATOM     12  C   UNL     1       4.279   0.806   0.613  0.00  0.00    +0.066 A 
ATOM     13  S   UNL     1       4.639  -0.029  -0.794  0.00  0.00    -0.084 S 
ATOM     14  C   UNL     1       6.328   0.160  -0.560  0.00  0.00    +0.057 A 
ATOM     15  C   UNL     1       6.591   0.870   0.625  0.00  0.00    +0.044 A 
ATOM     16  C   UNL     1       5.392   1.206   1.234  0.00  0.00    +0.074 A 
ATOM     17  N   UNL     1       5.089   1.864   2.361  0.00  0.00    -0.276 N 
ATOM     18  H   UNL     1       5.753   2.287   3.046  0.00  0.00    +0.189 HD
ATOM     19  N   UNL     1       3.760   1.889   2.465  0.00  0.00    -0.171 NA
BRANCH  14  20
ATOM     20  C   UNL     1       7.374  -0.386  -1.475  0.00  0.00    +0.378 C 
ATOM     21  F   UNL     1       8.223   0.630  -1.873  0.00  0.00    -0.203 F 
ATOM     22  F   UNL     1       8.101  -1.361  -0.820  0.00  0.00    -0.203 F 
ENDBRANCH  14  20
ENDBRANCH   6  11
BRANCH   1  23
ATOM     23  C   UNL     1      -3.484  -0.470  -1.196  0.00  0.00    +0.091 C 
BRANCH  23  25
ATOM     24  C   UNL     1      -5.568  -0.818   0.366  0.00  0.00    +0.007 C 
ATOM     25  C   UNL     1      -4.951  -0.066  -0.825  0.00  0.00    +0.036 C 
ENDBRANCH  23  25
BRANCH  23  26
ATOM     26  O   UNL     1      -3.217   0.029  -2.488  0.00  0.00    -0.384 OA
ATOM     27  H   UNL     1      -3.288   1.020  -2.453  0.00  0.00    +0.211 HD
ENDBRANCH  23  26
BRANCH  23  28
ATOM     28  C   UNL     1      -3.328  -2.021  -1.253  0.00  0.00    +0.036 C 
ATOM     29  C   UNL     1      -4.205  -2.697  -2.314  0.00  0.00    +0.007 C 
ENDBRANCH  23  28
ENDBRANCH   1  23
TORSDOF 6
