REMARK  Name = 
REMARK  10 active torsions:
REMARK  status: ('A' for Active; 'I' for Inactive)
REMARK    1  A    between atoms: C_1  and  C_2
REMARK    2  A    between atoms: C_2  and  C_3
REMARK    3  A    between atoms: C_2  and  C_4
REMARK    4  A    between atoms: C_2  and  O_35
REMARK    5  A    between atoms: C_4  and  N_5
REMARK    6  A    between atoms: C_9  and  C_12
REMARK    7  A    between atoms: C_12  and  N_13
REMARK    8  A    between atoms: N_13  and  C_14
REMARK    9  A    between atoms: C_23  and  C_25
REMARK   10  A    between atoms: C_28  and  C_30
REMARK                            x       y       z     vdW  Elec       q    Type
REMARK                         _______ _______ _______ _____ _____    ______ ____
ROOT
ATOM      1  N   UNL     1       0.855   0.008  -0.863  0.00  0.00    -0.309 N 
ATOM      2  C   UNL     1       1.205   0.851   0.151  0.00  0.00    +0.203 A 
ATOM      3  N   UNL     1       2.553   1.103   0.560  0.00  0.00    -0.251 N 
ATOM      4  H   UNL     1       2.810   2.094   0.769  0.00  0.00    +0.158 HD
ATOM      5  C   UNL     1       3.433   0.059   0.998  0.00  0.00    +0.257 C 
ATOM      6  O   UNL     1       2.973  -1.091   1.241  0.00  0.00    -0.269 OA
ATOM      7  N   UNL     1       0.152   1.490   0.721  0.00  0.00    -0.214 NA
ATOM      8  C   UNL     1      -0.899   1.002   0.040  0.00  0.00    +0.091 A 
ATOM      9  C   UNL     1      -2.242   1.312   0.226  0.00  0.00    +0.034 A 
ATOM     10  C   UNL     1      -3.192   0.687  -0.611  0.00  0.00    -0.031 A 
ATOM     11  C   UNL     1      -2.761  -0.241  -1.593  0.00  0.00    +0.007 A 
ATOM     12  C   UNL     1      -1.394  -0.531  -1.754  0.00  0.00    +0.028 A 
ATOM     13  C   UNL     1      -0.487   0.115  -0.911  0.00  0.00    +0.070 A 
ENDROOT
BRANCH   5  14
ATOM     14  C   UNL     1       4.874   0.309   1.172  0.00  0.00    +0.075 A 
ATOM     15  S   UNL     1       5.989  -0.832   1.714  0.00  0.00    -0.084 S 
ATOM     16  C   UNL     1       7.340   0.166   1.593  0.00  0.00    +0.023 A 
ATOM     17  C   UNL     1       6.934   1.406   1.110  0.00  0.00    +0.017 A 
ATOM     18  C   UNL     1       5.557   1.483   0.865  0.00  0.00    +0.021 A 
BRANCH  16  19
ATOM     19  C   UNL     1       8.719  -0.226   1.919  0.00  0.00    +0.026 A 
ATOM     20  C   UNL     1       9.838   0.584   1.964  0.00  0.00    +0.143 A 
ATOM     21  N   UNL     1      10.911  -0.164   2.286  0.00  0.00    -0.182 NA
ATOM     22  N   UNL     1      10.502  -1.415   2.440  0.00  0.00    -0.284 N 
ATOM     23  H   UNL     1      11.130  -2.211   2.687  0.00  0.00    +0.188 HD
ATOM     24  C   UNL     1       9.178  -1.491   2.226  0.00  0.00    +0.114 A 
ENDBRANCH  16  19
ENDBRANCH   5  14
BRANCH   1  25
ATOM     25  C   UNL     1       1.723  -0.745  -1.783  0.00  0.00    +0.159 C 
BRANCH  25  27
ATOM     26  C   UNL     1       2.865  -0.848  -4.018  0.00  0.00    +0.043 C 
ATOM     27  C   UNL     1       2.053   0.056  -3.067  0.00  0.00    +0.078 C 
ATOM     28  C   UNL     1       2.876   1.315  -2.724  0.00  0.00    +0.043 C 
BRANCH  27  29
ATOM     29  O   UNL     1       0.848   0.427  -3.695  0.00  0.00    -0.387 OA
ATOM     30  H   UNL     1       1.071   0.961  -4.501  0.00  0.00    +0.210 HD
ENDBRANCH  27  29
ENDBRANCH  25  27
ENDBRANCH   1  25
BRANCH  10  31
ATOM     31  C   UNL     1      -4.657   0.955  -0.409  0.00  0.00    +0.116 C 
BRANCH  31  32
ATOM     32  N   UNL     1      -5.164   0.085   0.661  0.00  0.00    -0.309 NA
ATOM     33  H   UNL     1      -5.208  -0.896   0.302  0.00  0.00    +0.123 HD
BRANCH  32  34
ATOM     34  C   UNL     1      -6.480   0.516   1.175  0.00  0.00    +0.054 C 
ATOM     35  C   UNL     1      -7.650   0.169   0.219  0.00  0.00    +0.019 C 
ATOM     36  C   UNL     1      -7.972  -1.333   0.186  0.00  0.00    +0.002 C 
ATOM     37  C   UNL     1      -8.209  -1.881   1.597  0.00  0.00    +0.000 C 
ATOM     38  C   UNL     1      -7.012  -1.595   2.509  0.00  0.00    +0.002 C 
ATOM     39  C   UNL     1      -6.717  -0.089   2.572  0.00  0.00    +0.019 C 
ENDBRANCH  32  34
ENDBRANCH  31  32
ENDBRANCH  10  31
TORSDOF 8
