REMARK  Name = 
REMARK  4 active torsions:
REMARK  status: ('A' for Active; 'I' for Inactive)
REMARK    1  A    between atoms: C_2  and  C_3
REMARK    2  A    between atoms: C_9  and  N_11
REMARK    3  A    between atoms: C_21  and  C_23
REMARK    4  A    between atoms: C_26  and  C_28
REMARK                            x       y       z     vdW  Elec       q    Type
REMARK                         _______ _______ _______ _____ _____    ______ ____
ROOT
ATOM      1  N   UNL     1      -1.045   0.953  -1.872  0.00  0.00    -0.307 N 
ATOM      2  C   UNL     1       0.107   0.650  -2.537  0.00  0.00    +0.204 A 
ATOM      3  N   UNL     1       1.284   0.132  -1.908  0.00  0.00    -0.251 N 
ATOM      4  H   UNL     1       2.196   0.586  -2.139  0.00  0.00    +0.158 HD
ATOM      5  C   UNL     1       1.288  -1.115  -1.199  0.00  0.00    +0.257 C 
ATOM      6  O   UNL     1       0.303  -1.896  -1.295  0.00  0.00    -0.269 OA
ATOM      7  N   UNL     1       0.073   0.939  -3.862  0.00  0.00    -0.214 NA
ATOM      8  C   UNL     1      -1.169   1.424  -4.030  0.00  0.00    +0.091 A 
ATOM      9  C   UNL     1      -1.736   1.892  -5.213  0.00  0.00    +0.030 A 
ATOM     10  C   UNL     1      -3.047   2.397  -5.158  0.00  0.00    +0.002 A 
ATOM     11  C   UNL     1      -3.748   2.431  -3.933  0.00  0.00    +0.002 A 
ATOM     12  C   UNL     1      -3.146   1.955  -2.753  0.00  0.00    +0.028 A 
ATOM     13  C   UNL     1      -1.847   1.442  -2.843  0.00  0.00    +0.070 A 
ENDROOT
BRANCH   1  17
ATOM     14  C   UNL     1      -2.989  -1.469   1.959  0.00  0.00    +0.239 C 
ATOM     15  N   UNL     1      -2.642  -0.210   1.341  0.00  0.00    -0.296 N 
ATOM     16  C   UNL     1      -2.407  -0.151  -0.110  0.00  0.00    +0.133 C 
ATOM     17  C   UNL     1      -1.294   0.867  -0.421  0.00  0.00    +0.108 C 
ATOM     18  C   UNL     1      -1.550   2.267   0.200  0.00  0.00    +0.028 C 
ATOM     19  C   UNL     1      -2.688   2.275   1.230  0.00  0.00    +0.021 C 
ATOM     20  C   UNL     1      -2.651   1.034   2.130  0.00  0.00    +0.108 C 
ATOM     21  O   UNL     1      -3.375  -2.431   1.238  0.00  0.00    -0.271 OA
BRANCH  14  23
ATOM     22  C   UNL     1      -3.277  -2.780   4.028  0.00  0.00    +0.013 C 
ATOM     23  C   UNL     1      -2.894  -1.654   3.426  0.00  0.00    +0.060 C 
ENDBRANCH  14  23
ENDBRANCH   1  17
BRANCH   5  24
ATOM     24  C   UNL     1       2.436  -1.498  -0.361  0.00  0.00    +0.075 A 
ATOM     25  S   UNL     1       3.798  -0.553  -0.068  0.00  0.00    -0.084 S 
ATOM     26  C   UNL     1       4.558  -1.648   0.961  0.00  0.00    +0.023 A 
ATOM     27  C   UNL     1       3.747  -2.770   1.091  0.00  0.00    +0.017 A 
ATOM     28  C   UNL     1       2.559  -2.685   0.354  0.00  0.00    +0.021 A 
BRANCH  26  29
ATOM     29  C   UNL     1       5.860  -1.438   1.612  0.00  0.00    +0.026 A 
ATOM     30  C   UNL     1       6.670  -0.322   1.521  0.00  0.00    +0.143 A 
ATOM     31  N   UNL     1       7.778  -0.520   2.263  0.00  0.00    -0.182 NA
ATOM     32  N   UNL     1       7.689  -1.721   2.814  0.00  0.00    -0.284 N 
ATOM     33  H   UNL     1       8.413  -2.134   3.441  0.00  0.00    +0.188 HD
ATOM     34  C   UNL     1       6.538  -2.308   2.441  0.00  0.00    +0.114 A 
ENDBRANCH  26  29
ENDBRANCH   5  24
TORSDOF 4
