REMARK  Name = 
REMARK  13 active torsions:
REMARK  status: ('A' for Active; 'I' for Inactive)
REMARK    1  A    between atoms: C_1  and  C_2
REMARK    2  A    between atoms: C_2  and  C_3
REMARK    3  A    between atoms: C_2  and  N_7
REMARK    4  A    between atoms: C_3  and  C_4
REMARK    5  A    between atoms: C_3  and  C_5
REMARK    6  A    between atoms: C_3  and  C_6
REMARK    7  A    between atoms: N_7  and  C_8
REMARK    8  A    between atoms: C_8  and  C_9
REMARK    9  A    between atoms: N_15  and  C_29
REMARK   10  A    between atoms: C_19  and  C_21
REMARK   11  A    between atoms: C_24  and  C_26
REMARK   12  A    between atoms: C_29  and  C_30
REMARK   13  A    between atoms: C_35  and  C_37
REMARK                            x       y       z     vdW  Elec       q    Type
REMARK                         _______ _______ _______ _____ _____    ______ ____
ROOT
ATOM      1  C   UNL     1       3.056  -0.383  -1.418  0.00  0.00    -0.031 A 
ATOM      2  C   UNL     1       2.240  -1.543  -1.465  0.00  0.00    +0.007 A 
ATOM      3  C   UNL     1       0.840  -1.439  -1.400  0.00  0.00    +0.028 A 
ATOM      4  C   UNL     1       0.287  -0.163  -1.290  0.00  0.00    +0.070 A 
ATOM      5  N   UNL     1      -1.005   0.197  -1.196  0.00  0.00    -0.310 N 
ATOM      6  C   UNL     1      -0.953   1.556  -1.110  0.00  0.00    +0.203 A 
ATOM      7  N   UNL     1      -2.102   2.396  -0.947  0.00  0.00    -0.251 N 
ATOM      8  H   UNL     1      -2.033   3.191  -0.274  0.00  0.00    +0.158 HD
ATOM      9  C   UNL     1      -3.209   2.360  -1.857  0.00  0.00    +0.257 C 
ATOM     10  O   UNL     1      -3.064   1.853  -3.003  0.00  0.00    -0.269 OA
ATOM     11  N   UNL     1       0.308   2.059  -1.119  0.00  0.00    -0.214 NA
ATOM     12  C   UNL     1       1.067   0.957  -1.244  0.00  0.00    +0.091 A 
ATOM     13  C   UNL     1       2.457   0.891  -1.303  0.00  0.00    +0.034 A 
ENDROOT
BRANCH   9  14
ATOM     14  C   UNL     1      -4.521   2.902  -1.467  0.00  0.00    +0.075 A 
ATOM     15  S   UNL     1      -5.874   2.959  -2.466  0.00  0.00    -0.083 S 
ATOM     16  C   UNL     1      -6.912   3.616  -1.317  0.00  0.00    +0.055 A 
ATOM     17  C   UNL     1      -6.216   3.780  -0.126  0.00  0.00    +0.017 A 
ATOM     18  C   UNL     1      -4.876   3.383  -0.208  0.00  0.00    +0.021 A 
BRANCH  16  19
ATOM     19  C   UNL     1      -8.361   3.907  -1.530  0.00  0.00    +0.378 C 
ATOM     20  F   UNL     1      -9.125   3.024  -0.791  0.00  0.00    -0.203 F 
ATOM     21  F   UNL     1      -8.641   5.202  -1.133  0.00  0.00    -0.203 F 
ENDBRANCH  16  19
ENDBRANCH   9  14
BRANCH   1  22
ATOM     22  C   UNL     1       4.557  -0.518  -1.449  0.00  0.00    +0.116 C 
BRANCH  22  23
ATOM     23  N   UNL     1       5.088  -1.041  -0.180  0.00  0.00    -0.309 NA
ATOM     24  H   UNL     1       4.639  -1.958   0.051  0.00  0.00    +0.123 HD
BRANCH  23  26
ATOM     25  C   UNL     1       3.845  -0.444   1.892  0.00  0.00    +0.024 C 
ATOM     26  C   UNL     1       5.012  -0.079   0.945  0.00  0.00    +0.056 C 
BRANCH  26  27
ATOM     27  C   UNL     1       6.406   0.014   1.660  0.00  0.00    -0.023 C 
ATOM     28  C   UNL     1       6.845  -1.352   2.235  0.00  0.00    +0.012 C 
ATOM     29  C   UNL     1       6.377   1.052   2.805  0.00  0.00    +0.012 C 
ATOM     30  C   UNL     1       7.467   0.477   0.633  0.00  0.00    +0.012 C 
ENDBRANCH  26  27
ENDBRANCH  23  26
ENDBRANCH  22  23
ENDBRANCH   1  22
BRANCH   5  31
ATOM     31  C   UNL     1      -2.168  -0.690  -1.055  0.00  0.00    +0.147 C 
BRANCH  31  32
ATOM     32  C   UNL     1      -2.248  -1.321   0.352  0.00  0.00    +0.096 C 
ATOM     33  N   UNL     1      -3.447  -2.150   0.452  0.00  0.00    -0.293 N 
ATOM     34  C   UNL     1      -3.648  -3.423  -0.197  0.00  0.00    +0.239 C 
ATOM     35  O   UNL     1      -4.794  -3.950  -0.172  0.00  0.00    -0.271 OA
ATOM     36  C   UNL     1      -4.471  -1.547   1.294  0.00  0.00    +0.108 C 
ATOM     37  C   UNL     1      -3.921  -0.191   1.710  0.00  0.00    +0.021 C 
ATOM     38  C   UNL     1      -2.420  -0.274   1.460  0.00  0.00    +0.026 C 
BRANCH  34  39
ATOM     39  C   UNL     1      -2.541  -4.128  -0.879  0.00  0.00    +0.060 C 
ATOM     40  C   UNL     1      -2.741  -5.212  -1.625  0.00  0.00    +0.013 C 
ENDBRANCH  34  39
ENDBRANCH  31  32
ENDBRANCH   5  31
TORSDOF 9
