REMARK  Name = 
REMARK  11 active torsions:
REMARK  status: ('A' for Active; 'I' for Inactive)
REMARK    1  A    between atoms: C_1  and  C_2
REMARK    2  A    between atoms: C_6  and  C_36
REMARK    3  A    between atoms: N_7  and  C_8
REMARK    4  A    between atoms: C_8  and  C_9
REMARK    5  A    between atoms: N_15  and  C_31
REMARK    6  A    between atoms: C_19  and  C_21
REMARK    7  A    between atoms: C_24  and  C_26
REMARK    8  A    between atoms: C_31  and  C_32
REMARK    9  A    between atoms: C_32  and  C_33
REMARK   10  A    between atoms: C_32  and  C_34
REMARK   11  A    between atoms: C_32  and  O_35
REMARK                            x       y       z     vdW  Elec       q    Type
REMARK                         _______ _______ _______ _____ _____    ______ ____
ROOT
ATOM      1  C   UNL     1      -3.232   0.837   0.377  0.00  0.00    -0.031 A 
ATOM      2  C   UNL     1      -3.018  -0.478   0.866  0.00  0.00    +0.007 A 
ATOM      3  C   UNL     1      -1.724  -1.026   0.913  0.00  0.00    +0.028 A 
ATOM      4  C   UNL     1      -0.663  -0.232   0.473  0.00  0.00    +0.070 A 
ATOM      5  N   UNL     1       0.651  -0.517   0.425  0.00  0.00    -0.309 N 
ATOM      6  C   UNL     1       1.208   0.631  -0.055  0.00  0.00    +0.203 A 
ATOM      7  N   UNL     1       2.609   0.809  -0.289  0.00  0.00    -0.251 N 
ATOM      8  H   UNL     1       2.891   1.288  -1.173  0.00  0.00    +0.158 HD
ATOM      9  C   UNL     1       3.580   0.667   0.756  0.00  0.00    +0.257 C 
ATOM     10  O   UNL     1       3.205   0.588   1.958  0.00  0.00    -0.269 OA
ATOM     11  N   UNL     1       0.306   1.607  -0.332  0.00  0.00    -0.214 NA
ATOM     12  C   UNL     1      -0.862   1.040   0.018  0.00  0.00    +0.091 A 
ATOM     13  C   UNL     1      -2.128   1.613  -0.045  0.00  0.00    +0.034 A 
ENDROOT
BRANCH   9  14
ATOM     14  C   UNL     1       5.019   0.643   0.450  0.00  0.00    +0.075 A 
ATOM     15  S   UNL     1       6.249   0.670   1.600  0.00  0.00    -0.084 S 
ATOM     16  C   UNL     1       7.524   0.614   0.503  0.00  0.00    +0.023 A 
ATOM     17  C   UNL     1       6.999   0.569  -0.785  0.00  0.00    +0.017 A 
ATOM     18  C   UNL     1       5.599   0.582  -0.815  0.00  0.00    +0.021 A 
BRANCH  16  19
ATOM     19  C   UNL     1       8.951   0.611   0.859  0.00  0.00    +0.026 A 
ATOM     20  C   UNL     1      10.036   0.609   0.002  0.00  0.00    +0.143 A 
ATOM     21  N   UNL     1      11.171   0.599   0.728  0.00  0.00    -0.182 NA
ATOM     22  N   UNL     1      10.833   0.596   2.008  0.00  0.00    -0.284 N 
ATOM     23  H   UNL     1      11.517   0.589   2.796  0.00  0.00    +0.188 HD
ATOM     24  C   UNL     1       9.493   0.603   2.126  0.00  0.00    +0.114 A 
ENDBRANCH  16  19
ENDBRANCH   9  14
BRANCH   1  25
ATOM     25  C   UNL     1      -4.619   1.424   0.367  0.00  0.00    +0.120 C 
BRANCH  25  28
ATOM     26  C   UNL     1      -6.846  -0.170   1.756  0.00  0.00    +0.026 C 
ATOM     27  C   UNL     1      -6.899   0.427   0.340  0.00  0.00    +0.080 C 
ATOM     28  N   UNL     1      -5.570   0.502  -0.318  0.00  0.00    -0.288 NA
ATOM     29  C   UNL     1      -5.804   0.841  -1.749  0.00  0.00    +0.080 C 
ATOM     30  C   UNL     1      -4.508   1.055  -2.551  0.00  0.00    +0.026 C 
ATOM     31  C   UNL     1      -6.812   2.019  -1.906  0.00  0.00    +0.178 C 
ATOM     32  O   UNL     1      -7.052   2.679  -0.676  0.00  0.00    -0.377 OA
ATOM     33  C   UNL     1      -7.626   1.797   0.276  0.00  0.00    +0.178 C 
ENDBRANCH  25  28
ENDBRANCH   1  25
BRANCH   5  34
ATOM     34  C   UNL     1       1.298  -1.813   0.683  0.00  0.00    +0.159 C 
BRANCH  34  35
ATOM     35  C   UNL     1       1.302  -2.732  -0.570  0.00  0.00    +0.078 C 
ATOM     36  C   UNL     1       1.917  -4.097  -0.199  0.00  0.00    +0.043 C 
ATOM     37  C   UNL     1       2.136  -2.111  -1.702  0.00  0.00    +0.043 C 
BRANCH  35  38
ATOM     38  O   UNL     1      -0.010  -2.917  -1.046  0.00  0.00    -0.387 OA
ATOM     39  H   UNL     1      -0.519  -3.417  -0.355  0.00  0.00    +0.210 HD
ENDBRANCH  35  38
ENDBRANCH  34  35
ENDBRANCH   5  34
TORSDOF 7
