REMARK  7 active torsions:
REMARK  status: ('A' for Active; 'I' for Inactive)
REMARK    1  A    between atoms: O2_2  and  C15_25 
REMARK    2  A    between atoms: O2_2  and  C20_30 
REMARK    3  A    between atoms: N1_4  and  C5_15 
REMARK    4  A    between atoms: N2_5  and  C8_18 
REMARK       I    between atoms: N2_5  and  C14_24 
REMARK    5  A    between atoms: N7_10  and  C25_35 
REMARK       I    between atoms: N7_10  and  C28_38 
REMARK    6  A    between atoms: C12_22  and  C17_27 
REMARK    7  A    between atoms: C28_38  and  C29_39 
ROOT
ATOM      1  N2  UNK A   1      -3.809  -5.699   3.593  1.00  0.00    -0.188 N 
ATOM      2  N3  UNK A   1      -1.781  -1.885   1.658  1.00  0.00    -0.349 N 
ATOM      3  N4  UNK A   1      -2.941  -3.724   2.702  1.00  0.00    -0.044 NA
ATOM      4  N5  UNK A   1      -1.805  -5.856   2.402  1.00  0.00    -0.037 NA
ATOM      5  C11 UNK A   1      -0.845  -3.901   1.458  1.00  0.00     0.077 A 
ATOM      6  C12 UNK A   1      -0.032  -2.952   0.788  1.00  0.00     0.008 A 
ATOM      7  C13 UNK A   1      -1.925  -3.207   1.988  1.00  0.00     0.162 A 
ATOM      8  C14 UNK A   1      -2.794  -5.055   2.858  1.00  0.00     0.731 A 
ATOM      9  C15 UNK A   1      -0.811  -5.276   1.690  1.00  0.00     0.203 A 
ATOM     10  C16 UNK A   1      -0.633  -1.719   0.927  1.00  0.00     0.103 A 
ATOM     11  H13 UNK A   1      -4.593  -5.086   3.796  1.00  0.00     0.184 HD
ATOM     12  H15 UNK A   1      -2.423  -1.147   1.913  1.00  0.00     0.167 HD
ENDROOT
BRANCH   1  13
ATOM     13  C8  UNK A   1      -4.012  -7.045   3.964  1.00  0.00     0.049 A 
ATOM     14  C9  UNK A   1      -5.307  -7.535   4.129  1.00  0.00     0.032 A 
ATOM     15  C6  UNK A   1      -5.508  -8.865   4.498  1.00  0.00     0.031 A 
ATOM     16  C5  UNK A   1      -4.413  -9.705   4.702  1.00  0.00     0.030 A 
ATOM     17  C7  UNK A   1      -3.118  -9.215   4.537  1.00  0.00     0.031 A 
ATOM     18  C10 UNK A   1      -2.917  -7.885   4.168  1.00  0.00     0.032 A 
BRANCH  16  19
ATOM     19  N1  UNK A   1      -4.615 -11.039   5.071  1.00  0.00    -0.377 N 
ATOM     20  C1  UNK A   1      -5.344 -11.312   6.317  1.00  0.00     0.149 C 
ATOM     21  C3  UNK A   1      -5.886 -12.736   6.303  1.00  0.00     0.187 C 
ATOM     22  O1  UNK A   1      -4.842 -13.670   6.035  1.00  0.00    -0.388 OA
ATOM     23  C4  UNK A   1      -4.281 -13.444   4.744  1.00  0.00     0.187 C 
ATOM     24  C2  UNK A   1      -3.644 -12.062   4.668  1.00  0.00     0.149 C 
ENDBRANCH  16  19
ENDBRANCH   1  13
BRANCH   9  25
ATOM     25  O2  UNK A   1       0.199  -6.079   1.223  1.00  0.00    -0.291 OA
BRANCH  25  26
ATOM     26  C20 UNK A   1       0.123  -7.425   1.516  1.00  0.00     0.080 A 
ATOM     27  C23 UNK A   1       0.706  -7.918   2.684  1.00  0.00     0.066 A 
ATOM     28  C25 UNK A   1       0.631  -9.279   2.980  1.00  0.00     0.037 A 
ATOM     29  C27 UNK A   1      -0.028 -10.146   2.109  1.00  0.00     0.029 A 
ATOM     30  C26 UNK A   1      -0.611  -9.654   0.942  1.00  0.00     0.005 A 
ATOM     31  C24 UNK A   1      -0.535  -8.293   0.645  1.00  0.00     0.037 A 
BRANCH  28  32
ATOM     32  N7  UNK A   1       1.214  -9.772   4.147  1.00  0.00    -0.324 N 
ATOM     33  C28 UNK A   1       1.240 -11.096   4.607  1.00  0.00     0.244 C 
ATOM     34  O3  UNK A   1       0.749 -12.077   4.062  1.00  0.00    -0.268 OA
ATOM     35  H24 UNK A   1       1.673  -9.070   4.724  1.00  0.00     0.169 HD
BRANCH  33  36
ATOM     36  C29 UNK A   1       1.967 -11.214   5.904  1.00  0.00     0.064 C 
ATOM     37  C30 UNK A   1       2.099 -12.401   6.505  1.00  0.00     0.017 C 
ENDBRANCH  33  36
ENDBRANCH  28  32
ENDBRANCH  25  26
ENDBRANCH   9  25
BRANCH   6  38
ATOM     38  C17 UNK A   1       1.199  -3.127   0.070  1.00  0.00    -0.021 A 
ATOM     39  C18 UNK A   1       1.278  -2.784  -1.275  1.00  0.00     0.031 A 
ATOM     40  C21 UNK A   1       2.489  -2.971  -1.922  1.00  0.00     0.117 A 
ATOM     41  N6  UNK A   1       3.597  -3.466  -1.326  1.00  0.00    -0.273 NA
ATOM     42  C22 UNK A   1       3.482  -3.788  -0.018  1.00  0.00     0.117 A 
ATOM     43  C19 UNK A   1       2.318  -3.639   0.718  1.00  0.00     0.031 A 
ENDBRANCH   6  38
TORSDOF 7
