REMARK  4 active torsions:
REMARK  status: ('A' for Active; 'I' for Inactive)
REMARK    1  A    between atoms: N1_4  and  C1_10 
REMARK       I    between atoms: N2_5  and  C9_18 
REMARK       I    between atoms: N4_7  and  C7_16 
REMARK       I    between atoms: N4_7  and  C15_24 
REMARK    2  A    between atoms: C9_18  and  C13_22 
REMARK    3  A    between atoms: C15_24  and  C16_25 
REMARK    4  A    between atoms: C19_28  and  C21_30 
ROOT
ATOM      1  O2  UNK A   1       1.830  -9.609   1.767  1.00  0.00    -0.266 OA
ATOM      2  N1  UNK A   1       0.208  -5.571   1.914  1.00  0.00    -0.173 N 
ATOM      3  N3  UNK A   1       1.927  -6.704   1.076  1.00  0.00    -0.062 NA
ATOM      4  N4  UNK A   1       0.303  -7.917   2.363  1.00  0.00    -0.153 N 
ATOM      5  C6  UNK A   1       0.962  -4.646   1.238  1.00  0.00     0.081 A 
ATOM      6  C7  UNK A   1       0.825  -6.784   1.788  1.00  0.00     0.711 A 
ATOM      7  C8  UNK A   1       2.029  -5.378   0.724  1.00  0.00     0.103 A 
ATOM      8  C10 UNK A   1       0.807  -3.274   1.039  1.00  0.00     0.032 A 
ATOM      9  C11 UNK A   1       3.009  -4.717  -0.036  1.00  0.00     0.034 A 
ATOM     10  C12 UNK A   1       1.791  -2.633   0.280  1.00  0.00     0.002 A 
ATOM     11  C14 UNK A   1       2.873  -3.340  -0.249  1.00  0.00     0.002 A 
ATOM     12  C15 UNK A   1       0.807  -9.238   2.332  1.00  0.00     0.276 C 
ATOM     13  H11 UNK A   1      -0.556  -7.810   2.885  1.00  0.00     0.187 HD
ENDROOT
BRANCH   2  14
ATOM     14  C1  UNK A   1      -1.078  -5.287   2.666  1.00  0.00     0.126 C 
ATOM     15  C2  UNK A   1      -0.942  -5.590   4.172  1.00  0.00     0.029 C 
ATOM     16  C4  UNK A   1      -2.257  -5.325   4.907  1.00  0.00     0.022 C 
ATOM     17  C5  UNK A   1      -3.423  -6.061   4.250  1.00  0.00     0.126 C 
ATOM     18  N2  UNK A   1      -3.498  -5.731   2.826  1.00  0.00    -0.347 N 
ATOM     19  C3  UNK A   1      -2.275  -6.049   2.073  1.00  0.00     0.152 C 
ATOM     20  C9  UNK A   1      -4.668  -5.179   2.312  1.00  0.00     0.242 C 
ATOM     21  O1  UNK A   1      -5.678  -4.936   2.974  1.00  0.00    -0.268 OA
BRANCH  20  22
ATOM     22  C13 UNK A   1      -4.700  -4.854   0.872  1.00  0.00     0.064 C 
ATOM     23  C17 UNK A   1      -5.865  -4.911   0.224  1.00  0.00     0.017 C 
ENDBRANCH  20  22
ENDBRANCH   2  14
BRANCH  12  24
ATOM     24  C16 UNK A   1       0.023 -10.255   3.082  1.00  0.00     0.074 A 
ATOM     25  S1  UNK A   1      -1.395  -9.769   3.911  1.00  0.00    -0.084 SA
ATOM     26  C19 UNK A   1      -1.682 -11.364   4.466  1.00  0.00     0.019 A 
ATOM     27  C20 UNK A   1      -0.717 -12.245   4.028  1.00  0.00     0.021 A 
ATOM     28  C18 UNK A   1       0.270 -11.602   3.226  1.00  0.00     0.026 A 
BRANCH  26  29
ATOM     29  C21 UNK A   1      -2.829 -11.739   5.314  1.00  0.00     0.017 A 
ATOM     30  C22 UNK A   1      -3.111 -12.998   5.787  1.00  0.00     0.123 A 
ATOM     31  N5  UNK A   1      -4.255 -12.873   6.518  1.00  0.00    -0.289 N 
ATOM     32  N6  UNK A   1      -4.743 -11.621   6.555  1.00  0.00    -0.187 NA
ATOM     33  H22 UNK A   1      -4.757 -13.598   7.016  1.00  0.00     0.188 HD
ATOM     34  C23 UNK A   1      -3.867 -10.933   5.818  1.00  0.00     0.152 A 
ENDBRANCH  26  29
ENDBRANCH  12  24
TORSDOF 4
