REMARK  9 active torsions:
REMARK  status: ('A' for Active; 'I' for Inactive)
REMARK    1  A    between atoms: O1_2  and  C1_10 
REMARK    2  A    between atoms: N1_4  and  C2_11 
REMARK       I    between atoms: N3_6  and  C4_13 
REMARK       I    between atoms: N3_6  and  C13_22 
REMARK    3  A    between atoms: N4_7  and  C12_21 
REMARK    4  A    between atoms: N4_7  and  C14_23 
REMARK    5  A    between atoms: C1_10  and  C2_11 
REMARK    6  A    between atoms: C9_18  and  C12_21 
REMARK    7  A    between atoms: C13_22  and  C15_24 
REMARK    8  A    between atoms: C14_23  and  C16_25 
REMARK    9  A    between atoms: C18_27  and  C22_31 
ROOT
ATOM      1  O2  UNK A   1      -4.058  -7.282   4.702  1.00  0.00    -0.266 OA
ATOM      2  N1  UNK A   1       0.054  -8.102   3.528  1.00  0.00    -0.176 N 
ATOM      3  N2  UNK A   1      -1.393  -6.421   3.661  1.00  0.00    -0.062 NA
ATOM      4  N3  UNK A   1      -2.138  -8.600   4.341  1.00  0.00    -0.153 N 
ATOM      5  C3  UNK A   1       0.734  -6.997   3.084  1.00  0.00     0.081 A 
ATOM      6  C4  UNK A   1      -1.212  -7.707   3.861  1.00  0.00     0.710 A 
ATOM      7  C5  UNK A   1      -0.190  -5.961   3.177  1.00  0.00     0.103 A 
ATOM      8  C8  UNK A   1       2.040  -6.820   2.623  1.00  0.00     0.033 A 
ATOM      9  C9  UNK A   1       1.498  -4.464   2.327  1.00  0.00    -0.028 A 
ATOM     10  C10 UNK A   1       0.192  -4.665   2.792  1.00  0.00     0.043 A 
ATOM     11  C11 UNK A   1       2.403  -5.524   2.245  1.00  0.00     0.011 A 
ATOM     12  C13 UNK A   1      -3.477  -8.362   4.729  1.00  0.00     0.276 C 
ATOM     13  H15 UNK A   1      -1.822  -9.563   4.421  1.00  0.00     0.187 HD
ENDROOT
BRANCH   2  14
ATOM     14  C2  UNK A   1       0.590  -9.442   3.622  1.00  0.00     0.184 C 
BRANCH  14  15
ATOM     15  C1  UNK A   1       0.152 -10.408   2.497  1.00  0.00     0.068 C 
ATOM     16  C6  UNK A   1       0.819 -11.773   2.709  1.00  0.00     0.047 C 
ATOM     17  C7  UNK A   1       0.489  -9.889   1.098  1.00  0.00     0.047 C 
BRANCH  15  18
ATOM     18  O1  UNK A   1      -1.262 -10.609   2.555  1.00  0.00    -0.389 OA
ATOM     19  H12 UNK A   1      -1.509 -11.235   1.852  1.00  0.00     0.210 HD
ENDBRANCH  15  18
ENDBRANCH  14  15
ENDBRANCH   2  14
BRANCH  12  20
ATOM     20  C15 UNK A   1      -4.246  -9.549   5.187  1.00  0.00     0.074 A 
ATOM     21  S1  UNK A   1      -3.480 -11.081   5.209  1.00  0.00    -0.084 SA
ATOM     22  C18 UNK A   1      -4.897 -11.841   5.797  1.00  0.00     0.019 A 
ATOM     23  C21 UNK A   1      -5.929 -10.946   5.973  1.00  0.00     0.021 A 
ATOM     24  C17 UNK A   1      -5.552  -9.618   5.619  1.00  0.00     0.026 A 
BRANCH  22  25
ATOM     25  C22 UNK A   1      -4.991 -13.286   6.080  1.00  0.00     0.017 A 
ATOM     26  C26 UNK A   1      -6.096 -13.951   6.552  1.00  0.00     0.123 A 
ATOM     27  N5  UNK A   1      -5.726 -15.259   6.662  1.00  0.00    -0.289 N 
ATOM     28  N6  UNK A   1      -4.455 -15.496   6.295  1.00  0.00    -0.187 NA
ATOM     29  H28 UNK A   1      -6.288 -16.039   6.980  1.00  0.00     0.188 HD
ATOM     30  C27 UNK A   1      -4.011 -14.288   5.940  1.00  0.00     0.152 A 
ENDBRANCH  22  25
ENDBRANCH  12  20
BRANCH   9  31
ATOM     31  C12 UNK A   1       1.926  -3.095   1.913  1.00  0.00     0.308 C 
BRANCH  31  32
ATOM     32  N4  UNK A   1       1.394  -2.719   0.602  1.00  0.00     0.091 N 
ATOM     33  H16 UNK A   1       1.732  -3.383  -0.096  1.00  0.00     0.316 HD
BRANCH  32  34
ATOM     34  C14 UNK A   1       1.823  -1.378   0.238  1.00  0.00     0.308 C 
BRANCH  34  35
ATOM     35  C16 UNK A   1       1.289  -0.965  -1.108  1.00  0.00    -0.030 A 
ATOM     36  C19 UNK A   1       2.025  -1.232  -2.262  1.00  0.00     0.009 A 
ATOM     37  C23 UNK A   1       1.530  -0.849  -3.509  1.00  0.00     0.001 A 
ATOM     38  C25 UNK A   1       0.299  -0.199  -3.601  1.00  0.00     0.000 A 
ATOM     39  C24 UNK A   1      -0.436   0.068  -2.446  1.00  0.00     0.001 A 
ATOM     40  C20 UNK A   1       0.058  -0.315  -1.200  1.00  0.00     0.009 A 
ENDBRANCH  34  35
ENDBRANCH  32  34
ENDBRANCH  31  32
ENDBRANCH   9  31
TORSDOF 9
