REMARK  7 active torsions:
REMARK  status: ('A' for Active; 'I' for Inactive)
REMARK    1  A    between atoms: O2_3  and  C13_23 
REMARK    2  A    between atoms: N1_5  and  C3_13 
REMARK    3  A    between atoms: N2_6  and  C10_20 
REMARK       I    between atoms: N4_8  and  C16_26 
REMARK       I    between atoms: N4_8  and  C19_29 
REMARK    4  A    between atoms: C3_13  and  C8_18 
REMARK    5  A    between atoms: C10_20  and  C13_23 
REMARK    6  A    between atoms: C19_29  and  C20_30 
REMARK    7  A    between atoms: C22_32  and  C24_34 
ROOT
ATOM      1  O3  UNK A   1      -3.080  -4.701   2.158  1.00  0.00    -0.266 OA
ATOM      2  N2  UNK A   1      -0.683  -8.334   2.027  1.00  0.00    -0.176 N 
ATOM      3  N3  UNK A   1      -2.678  -7.612   2.690  1.00  0.00    -0.062 NA
ATOM      4  N4  UNK A   1      -1.187  -6.022   1.683  1.00  0.00    -0.153 N 
ATOM      5  C8  UNK A   1      -3.088 -11.181   3.721  1.00  0.00    -0.028 A 
ATOM      6  C9  UNK A   1      -1.313  -9.432   2.555  1.00  0.00     0.081 A 
ATOM      7  C11 UNK A   1      -3.468  -9.843   3.558  1.00  0.00     0.043 A 
ATOM      8  C12 UNK A   1      -2.556  -8.956   2.962  1.00  0.00     0.103 A 
ATOM      9  C14 UNK A   1      -1.833 -11.629   3.303  1.00  0.00     0.011 A 
ATOM     10  C15 UNK A   1      -0.913 -10.760   2.708  1.00  0.00     0.033 A 
ATOM     11  C16 UNK A   1      -1.539  -7.272   2.131  1.00  0.00     0.710 A 
ATOM     12  C19 UNK A   1      -1.944  -4.827   1.713  1.00  0.00     0.276 C 
ATOM     13  H26 UNK A   1      -0.256  -5.943   1.284  1.00  0.00     0.187 HD
ENDROOT
BRANCH   2  14
ATOM     14  C10 UNK A   1       0.649  -8.313   1.464  1.00  0.00     0.184 C 
BRANCH  14  15
ATOM     15  C13 UNK A   1       1.741  -7.711   2.377  1.00  0.00     0.068 C 
ATOM     16  C17 UNK A   1       1.840  -8.411   3.733  1.00  0.00     0.047 C 
ATOM     17  C18 UNK A   1       3.098  -7.785   1.665  1.00  0.00     0.047 C 
BRANCH  15  18
ATOM     18  O2  UNK A   1       1.462  -6.331   2.622  1.00  0.00    -0.389 OA
ATOM     19  H27 UNK A   1       2.172  -5.971   3.180  1.00  0.00     0.210 HD
ENDBRANCH  15  18
ENDBRANCH  14  15
ENDBRANCH   2  14
BRANCH  12  20
ATOM     20  C20 UNK A   1      -1.273  -3.616   1.172  1.00  0.00     0.074 A 
ATOM     21  S1  UNK A   1       0.325  -3.745   0.571  1.00  0.00    -0.084 SA
ATOM     22  C22 UNK A   1       0.370  -2.080   0.178  1.00  0.00     0.019 A 
ATOM     23  C23 UNK A   1      -0.808  -1.441   0.498  1.00  0.00     0.021 A 
ATOM     24  C21 UNK A   1      -1.760  -2.331   1.074  1.00  0.00     0.026 A 
BRANCH  22  25
ATOM     25  C24 UNK A   1       1.538  -1.415  -0.432  1.00  0.00     0.017 A 
ATOM     26  C25 UNK A   1       1.632  -0.087  -0.770  1.00  0.00     0.123 A 
ATOM     27  N5  UNK A   1       2.879   0.075  -1.298  1.00  0.00    -0.289 N 
ATOM     28  N6  UNK A   1       3.607  -1.054  -1.330  1.00  0.00    -0.187 NA
ATOM     29  H32 UNK A   1       3.297   0.926  -1.655  1.00  0.00     0.188 HD
ATOM     30  C26 UNK A   1       2.782  -1.961  -0.800  1.00  0.00     0.152 A 
ENDBRANCH  22  25
ENDBRANCH  12  20
BRANCH   5  31
ATOM     31  C3  UNK A   1      -4.050 -12.150   4.357  1.00  0.00     0.312 C 
BRANCH  31  32
ATOM     32  N1  UNK A   1      -4.114 -11.979   5.807  1.00  0.00     0.105 N 
ATOM     33  C1  UNK A   1      -2.885 -12.451   6.479  1.00  0.00     0.243 C 
ATOM     34  C4  UNK A   1      -2.994 -12.154   7.979  1.00  0.00     0.203 C 
ATOM     35  C6  UNK A   1      -2.550 -13.934   6.251  1.00  0.00     0.045 C 
ATOM     36  O1  UNK A   1      -4.144 -12.790   8.532  1.00  0.00    -0.387 OA
ATOM     37  C5  UNK A   1      -5.333 -12.286   7.926  1.00  0.00     0.203 C 
ATOM     38  C2  UNK A   1      -5.338 -12.547   6.410  1.00  0.00     0.243 C 
ATOM     39  C7  UNK A   1      -6.624 -11.957   5.819  1.00  0.00     0.045 C 
ENDBRANCH  31  32
ENDBRANCH   5  31
TORSDOF 7
