REMARK  Name = 
REMARK  11 active torsions:
REMARK  status: ('A' for Active; 'I' for Inactive)
REMARK    1  A    between atoms: C_1  and  C_2
REMARK    2  A    between atoms: C_2  and  C_3
REMARK    3  A    between atoms: C_2  and  C_4
REMARK    4  A    between atoms: C_2  and  C_5
REMARK    5  A    between atoms: C_7  and  N_11
REMARK    6  A    between atoms: C_12  and  C_14
REMARK    7  A    between atoms: C_18  and  C_20
REMARK    8  A    between atoms: N_22  and  C_30
REMARK    9  A    between atoms: C_27  and  N_29
REMARK   10  A    between atoms: C_36  and  C_38
REMARK   11  A    between atoms: C_39  and  S_40
REMARK                            x       y       z     vdW  Elec       q    Type
REMARK                         _______ _______ _______ _____ _____    ______ ____
ROOT
ATOM      1  C   UNL     1       1.609  -2.172  -1.310  0.00  0.00    +0.105 A 
ATOM      2  C   UNL     1       2.563  -3.141  -1.015  0.00  0.00    +0.086 A 
ATOM      3  C   UNL     1       3.522  -2.471  -0.318  0.00  0.00    +0.164 A 
ATOM      4  N   UNL     1       4.659  -3.068   0.117  0.00  0.00    -0.216 NA
ATOM      5  C   UNL     1       4.831  -4.396  -0.144  0.00  0.00    +0.225 A 
ATOM      6  N   UNL     1       3.863  -5.105  -0.804  0.00  0.00    -0.220 NA
ATOM      7  N   UNL     1       3.174  -1.183  -0.164  0.00  0.00    -0.241 N 
ATOM      8  C   UNL     1       2.712  -4.513  -1.243  0.00  0.00    +0.131 A 
ATOM      9  N   UNL     1       2.009  -0.991  -0.776  0.00  0.00    -0.168 NA
ENDROOT
BRANCH   7  10
ATOM     10  C   UNL     1       3.945  -0.128   0.500  0.00  0.00    +0.127 C 
ATOM     11  C   UNL     1       4.457   0.885  -0.534  0.00  0.00    +0.135 C 
ATOM     12  N   UNL     1       5.254   1.925   0.136  0.00  0.00    -0.296 N 
ATOM     13  C   UNL     1       6.366   2.530  -0.556  0.00  0.00    +0.240 C 
ATOM     14  O   UNL     1       6.428   2.455  -1.814  0.00  0.00    -0.271 OA
ATOM     15  C   UNL     1       4.858   2.397   1.474  0.00  0.00    +0.108 C 
ATOM     16  C   UNL     1       3.397   2.048   1.779  0.00  0.00    +0.021 C 
ATOM     17  C   UNL     1       3.108   0.545   1.616  0.00  0.00    +0.030 C 
BRANCH  13  18
ATOM     18  C   UNL     1       7.440   3.228   0.188  0.00  0.00    +0.074 C 
ATOM     19  C   UNL     1       8.444   3.854  -0.428  0.00  0.00    +0.042 C 
BRANCH  19  20
ATOM     20  S   UNL     1       9.712   4.681   0.526  0.00  0.00    -0.150 S 
ATOM     21  H   UNL     1      10.506   3.520   0.580  0.00  0.00    +0.107 HD
ENDBRANCH  19  20
ENDBRANCH  13  18
ENDBRANCH   7  10
BRANCH   1  24
ATOM     22  C   UNL     1      -1.966  -1.902  -2.519  0.00  0.00    +0.038 A 
ATOM     23  C   UNL     1      -0.818  -1.803  -1.712  0.00  0.00    +0.023 A 
ATOM     24  C   UNL     1       0.415  -2.296  -2.163  0.00  0.00    +0.004 A 
ATOM     25  C   UNL     1       0.512  -2.849  -3.448  0.00  0.00    +0.010 A 
ATOM     26  C   UNL     1      -0.621  -2.948  -4.256  0.00  0.00    +0.001 A 
ATOM     27  C   UNL     1      -1.855  -2.486  -3.794  0.00  0.00    +0.013 A 
BRANCH  22  30
ATOM     28  N   UNL     1      -3.381  -0.501  -0.940  0.00  0.00    -0.281 N 
ATOM     29  H   UNL     1      -2.610   0.196  -0.823  0.00  0.00    +0.155 HD
ATOM     30  C   UNL     1      -3.286  -1.442  -2.024  0.00  0.00    +0.248 C 
ATOM     31  O   UNL     1      -4.340  -1.868  -2.574  0.00  0.00    -0.270 OA
BRANCH  28  36
ATOM     32  C   UNL     1      -6.003   1.009   1.299  0.00  0.00    -0.040 A 
ATOM     33  C   UNL     1      -6.748  -0.149   1.611  0.00  0.00    +0.004 A 
ATOM     34  C   UNL     1      -6.399  -1.394   1.087  0.00  0.00    +0.002 A 
ATOM     35  C   UNL     1      -5.301  -1.517   0.239  0.00  0.00    +0.023 A 
ATOM     36  C   UNL     1      -4.537  -0.389  -0.094  0.00  0.00    +0.034 A 
ATOM     37  C   UNL     1      -4.878   0.859   0.450  0.00  0.00    +0.027 A 
BRANCH  32  39
ATOM     38  C   UNL     1      -5.561   3.550   1.391  0.00  0.00    +0.015 C 
ATOM     39  C   UNL     1      -6.417   2.367   1.906  0.00  0.00    -0.013 C 
ATOM     40  C   UNL     1      -6.266   2.305   3.441  0.00  0.00    +0.015 C 
ATOM     41  C   UNL     1      -7.890   2.672   1.547  0.00  0.00    +0.015 C 
ENDBRANCH  32  39
ENDBRANCH  28  36
ENDBRANCH  22  30
ENDBRANCH   1  24
BRANCH   8  42
ATOM     42  N   UNL     1       1.684  -5.312  -1.831  0.00  0.00    -0.342 N 
ATOM     43  H   UNL     1       1.885  -6.303  -2.095  0.00  0.00    +0.144 HD
ATOM     44  H   UNL     1       0.696  -4.985  -1.880  0.00  0.00    +0.144 HD
ENDBRANCH   8  42
TORSDOF 8
