MODEL 1
REMARK VINA RESULT:   -11.869      0.000      0.000
REMARK INTER + INTRA:         -17.490
REMARK INTER:                 -16.727
REMARK INTRA:                  -0.764
REMARK UNBOUND:                -0.764
REMARK  Name = 
REMARK  11 active torsions:
REMARK  status: ('A' for Active; 'I' for Inactive)
REMARK    1  A    between atoms: C_1  and  C_2
REMARK    2  A    between atoms: C_2  and  C_3
REMARK    3  A    between atoms: C_2  and  C_4
REMARK    4  A    between atoms: C_2  and  C_5
REMARK    5  A    between atoms: C_7  and  N_11
REMARK    6  A    between atoms: C_12  and  C_14
REMARK    7  A    between atoms: C_18  and  C_20
REMARK    8  A    between atoms: N_22  and  C_30
REMARK    9  A    between atoms: C_27  and  N_29
REMARK   10  A    between atoms: C_36  and  C_38
REMARK   11  A    between atoms: C_39  and  S_40
REMARK                            x       y       z     vdW  Elec       q    Type
REMARK                         _______ _______ _______ _____ _____    ______ ____
ROOT
ATOM      1  C   UNL     1       3.020   6.396  21.523  0.00  0.00    +0.105 A 
ATOM      2  C   UNL     1       2.642   5.398  22.415  0.00  0.00    +0.086 A 
ATOM      3  C   UNL     1       3.737   5.214  23.203  0.00  0.00    +0.164 A 
ATOM      4  N   UNL     1       3.783   4.278  24.183  0.00  0.00    -0.216 NA
ATOM      5  C   UNL     1       2.677   3.507  24.391  0.00  0.00    +0.225 A 
ATOM      6  N   UNL     1       1.546   3.700  23.644  0.00  0.00    -0.220 NA
ATOM      7  N   UNL     1       4.717   6.061  22.845  0.00  0.00    -0.241 N 
ATOM      8  C   UNL     1       1.489   4.643  22.656  0.00  0.00    +0.131 A 
ATOM      9  N   UNL     1       4.288   6.781  21.812  0.00  0.00    -0.168 NA
ENDROOT
BRANCH   7  10
ATOM     10  C   UNL     1       6.060   6.161  23.424  0.00  0.00    +0.127 C 
ATOM     11  C   UNL     1       6.928   4.985  22.956  0.00  0.00    +0.135 C 
ATOM     12  N   UNL     1       8.265   5.076  23.564  0.00  0.00    -0.296 N 
ATOM     13  C   UNL     1       8.989   3.870  23.883  0.00  0.00    +0.240 C 
ATOM     14  O   UNL     1       8.666   2.786  23.323  0.00  0.00    -0.271 OA
ATOM     15  C   UNL     1       8.886   6.397  23.763  0.00  0.00    +0.108 C 
ATOM     16  C   UNL     1       8.223   7.463  22.883  0.00  0.00    +0.021 C 
ATOM     17  C   UNL     1       6.700   7.532  23.093  0.00  0.00    +0.030 C 
BRANCH  13  18
ATOM     18  C   UNL     1      10.097   3.882  24.866  0.00  0.00    +0.074 C 
ATOM     19  C   UNL     1      11.110   3.016  24.810  0.00  0.00    +0.042 C 
BRANCH  19  20
ATOM     20  S   UNL     1      12.421   3.081  26.026  0.00  0.00    -0.150 S 
ATOM     21  H   UNL     1      11.672   2.333  26.954  0.00  0.00    +0.107 HD
ENDBRANCH  19  20
ENDBRANCH  13  18
ENDBRANCH   7  10
BRANCH   1  24
ATOM     22  C   UNL     1       1.683   8.763  18.891  0.00  0.00    +0.038 A 
ATOM     23  C   UNL     1       2.372   8.262  20.010  0.00  0.00    +0.023 A 
ATOM     24  C   UNL     1       2.280   6.906  20.356  0.00  0.00    +0.004 A 
ATOM     25  C   UNL     1       1.532   6.034  19.551  0.00  0.00    +0.010 A 
ATOM     26  C   UNL     1       0.848   6.522  18.437  0.00  0.00    +0.001 A 
ATOM     27  C   UNL     1       0.914   7.879  18.112  0.00  0.00    +0.013 A 
BRANCH  22  30
ATOM     28  N   UNL     1       0.650  10.824  17.822  0.00  0.00    -0.281 N 
ATOM     29  H   UNL     1      -0.314  10.434  17.935  0.00  0.00    +0.155 HD
ATOM     30  C   UNL     1       1.722  10.207  18.556  0.00  0.00    +0.248 C 
ATOM     31  O   UNL     1       2.702  10.907  18.937  0.00  0.00    -0.270 OA
BRANCH  28  36
ATOM     32  C   UNL     1       1.871  13.177  15.149  0.00  0.00    -0.040 A 
ATOM     33  C   UNL     1       1.210  14.358  15.549  0.00  0.00    +0.004 A 
ATOM     34  C   UNL     1       0.375  14.374  16.667  0.00  0.00    +0.002 A 
ATOM     35  C   UNL     1       0.176  13.215  17.413  0.00  0.00    +0.023 A 
ATOM     36  C   UNL     1       0.816  12.022  17.046  0.00  0.00    +0.034 A 
ATOM     37  C   UNL     1       1.671  12.013  15.933  0.00  0.00    +0.027 A 
BRANCH  32  39
ATOM     38  C   UNL     1       4.139  13.923  14.170  0.00  0.00    +0.015 C 
ATOM     39  C   UNL     1       2.793  13.203  13.911  0.00  0.00    -0.013 C 
ATOM     40  C   UNL     1       2.076  13.937  12.758  0.00  0.00    +0.015 C 
ATOM     41  C   UNL     1       3.120  11.756  13.474  0.00  0.00    +0.015 C 
ENDBRANCH  32  39
ENDBRANCH  28  36
ENDBRANCH  22  30
ENDBRANCH   1  24
BRANCH   8  42
ATOM     42  N   UNL     1       0.256   4.882  21.975  0.00  0.00    -0.342 N 
ATOM     43  H   UNL     1      -0.131   4.154  21.333  0.00  0.00    +0.144 HD
ATOM     44  H   UNL     1      -0.346   5.702  22.202  0.00  0.00    +0.144 HD
ENDBRANCH   8  42
TORSDOF 8
ENDMDL
MODEL 2
REMARK VINA RESULT:   -11.425      2.288      3.518
REMARK INTER + INTRA:         -16.865
REMARK INTER:                 -15.629
REMARK INTRA:                  -1.236
REMARK UNBOUND:                -0.764
REMARK  Name = 
REMARK  11 active torsions:
REMARK  status: ('A' for Active; 'I' for Inactive)
REMARK    1  A    between atoms: C_1  and  C_2
REMARK    2  A    between atoms: C_2  and  C_3
REMARK    3  A    between atoms: C_2  and  C_4
REMARK    4  A    between atoms: C_2  and  C_5
REMARK    5  A    between atoms: C_7  and  N_11
REMARK    6  A    between atoms: C_12  and  C_14
REMARK    7  A    between atoms: C_18  and  C_20
REMARK    8  A    between atoms: N_22  and  C_30
REMARK    9  A    between atoms: C_27  and  N_29
REMARK   10  A    between atoms: C_36  and  C_38
REMARK   11  A    between atoms: C_39  and  S_40
REMARK                            x       y       z     vdW  Elec       q    Type
REMARK                         _______ _______ _______ _____ _____    ______ ____
ROOT
ATOM      1  C   UNL     1       4.721   6.020  19.470  0.00  0.00    +0.105 A 
ATOM      2  C   UNL     1       5.959   6.203  18.862  0.00  0.00    +0.086 A 
ATOM      3  C   UNL     1       6.844   5.612  19.712  0.00  0.00    +0.164 A 
ATOM      4  N   UNL     1       8.182   5.617  19.492  0.00  0.00    -0.216 NA
ATOM      5  C   UNL     1       8.648   6.225  18.363  0.00  0.00    +0.225 A 
ATOM      6  N   UNL     1       7.777   6.788  17.468  0.00  0.00    -0.220 NA
ATOM      7  N   UNL     1       6.198   5.073  20.759  0.00  0.00    -0.241 N 
ATOM      8  C   UNL     1       6.427   6.785  17.679  0.00  0.00    +0.131 A 
ATOM      9  N   UNL     1       4.900   5.326  20.622  0.00  0.00    -0.168 NA
ENDROOT
BRANCH   7  10
ATOM     10  C   UNL     1       6.790   4.376  21.905  0.00  0.00    +0.127 C 
ATOM     11  C   UNL     1       7.474   5.382  22.842  0.00  0.00    +0.135 C 
ATOM     12  N   UNL     1       8.090   4.672  23.974  0.00  0.00    -0.296 N 
ATOM     13  C   UNL     1       9.303   5.184  24.564  0.00  0.00    +0.240 C 
ATOM     14  O   UNL     1       9.622   6.391  24.377  0.00  0.00    -0.271 OA
ATOM     15  C   UNL     1       7.418   3.494  24.547  0.00  0.00    +0.108 C 
ATOM     16  C   UNL     1       5.935   3.454  24.161  0.00  0.00    +0.021 C 
ATOM     17  C   UNL     1       5.726   3.522  22.638  0.00  0.00    +0.030 C 
BRANCH  13  18
ATOM     18  C   UNL     1      10.185   4.314  25.375  0.00  0.00    +0.074 C 
ATOM     19  C   UNL     1      11.108   3.523  24.826  0.00  0.00    +0.042 C 
BRANCH  19  20
ATOM     20  S   UNL     1      12.144   2.494  25.860  0.00  0.00    -0.150 S 
ATOM     21  H   UNL     1      12.414   3.556  26.743  0.00  0.00    +0.107 HD
ENDBRANCH  19  20
ENDBRANCH  13  18
ENDBRANCH   7  10
BRANCH   1  24
ATOM     22  C   UNL     1       2.032   8.492  18.484  0.00  0.00    +0.038 A 
ATOM     23  C   UNL     1       3.268   7.952  18.882  0.00  0.00    +0.023 A 
ATOM     24  C   UNL     1       3.416   6.569  19.066  0.00  0.00    +0.004 A 
ATOM     25  C   UNL     1       2.334   5.716  18.805  0.00  0.00    +0.010 A 
ATOM     26  C   UNL     1       1.105   6.244  18.407  0.00  0.00    +0.001 A 
ATOM     27  C   UNL     1       0.950   7.623  18.255  0.00  0.00    +0.013 A 
BRANCH  22  30
ATOM     28  N   UNL     1       0.851  10.500  17.468  0.00  0.00    -0.281 N 
ATOM     29  H   UNL     1      -0.018   9.941  17.305  0.00  0.00    +0.155 HD
ATOM     30  C   UNL     1       1.850   9.958  18.350  0.00  0.00    +0.248 C 
ATOM     31  O   UNL     1       2.569  10.739  19.032  0.00  0.00    -0.270 OA
BRANCH  28  36
ATOM     32  C   UNL     1       1.833  13.332  15.193  0.00  0.00    -0.040 A 
ATOM     33  C   UNL     1       1.154  14.396  15.826  0.00  0.00    +0.004 A 
ATOM     34  C   UNL     1       0.384  14.180  16.969  0.00  0.00    +0.002 A 
ATOM     35  C   UNL     1       0.269  12.902  17.509  0.00  0.00    +0.023 A 
ATOM     36  C   UNL     1       0.929  11.820  16.907  0.00  0.00    +0.034 A 
ATOM     37  C   UNL     1       1.720  12.042  15.769  0.00  0.00    +0.027 A 
BRANCH  32  39
ATOM     38  C   UNL     1       3.069  12.329  13.161  0.00  0.00    +0.015 C 
ATOM     39  C   UNL     1       2.683  13.613  13.934  0.00  0.00    -0.013 C 
ATOM     40  C   UNL     1       3.987  14.326  14.350  0.00  0.00    +0.015 C 
ATOM     41  C   UNL     1       1.891  14.518  12.961  0.00  0.00    +0.015 C 
ENDBRANCH  32  39
ENDBRANCH  28  36
ENDBRANCH  22  30
ENDBRANCH   1  24
BRANCH   8  42
ATOM     42  N   UNL     1       5.551   7.287  16.669  0.00  0.00    -0.342 N 
ATOM     43  H   UNL     1       5.028   8.177  16.833  0.00  0.00    +0.144 HD
ATOM     44  H   UNL     1       5.518   6.871  15.715  0.00  0.00    +0.144 HD
ENDBRANCH   8  42
TORSDOF 8
ENDMDL
MODEL 3
REMARK VINA RESULT:   -11.418      2.731      2.880
REMARK INTER + INTRA:         -16.854
REMARK INTER:                 -15.738
REMARK INTRA:                  -1.115
REMARK UNBOUND:                -0.764
REMARK  Name = 
REMARK  11 active torsions:
REMARK  status: ('A' for Active; 'I' for Inactive)
REMARK    1  A    between atoms: C_1  and  C_2
REMARK    2  A    between atoms: C_2  and  C_3
REMARK    3  A    between atoms: C_2  and  C_4
REMARK    4  A    between atoms: C_2  and  C_5
REMARK    5  A    between atoms: C_7  and  N_11
REMARK    6  A    between atoms: C_12  and  C_14
REMARK    7  A    between atoms: C_18  and  C_20
REMARK    8  A    between atoms: N_22  and  C_30
REMARK    9  A    between atoms: C_27  and  N_29
REMARK   10  A    between atoms: C_36  and  C_38
REMARK   11  A    between atoms: C_39  and  S_40
REMARK                            x       y       z     vdW  Elec       q    Type
REMARK                         _______ _______ _______ _____ _____    ______ ____
ROOT
ATOM      1  C   UNL     1       3.889   6.098  20.588  0.00  0.00    +0.105 A 
ATOM      2  C   UNL     1       3.744   5.339  21.745  0.00  0.00    +0.086 A 
ATOM      3  C   UNL     1       5.010   4.941  22.050  0.00  0.00    +0.164 A 
ATOM      4  N   UNL     1       5.287   4.133  23.103  0.00  0.00    -0.216 NA
ATOM      5  C   UNL     1       4.251   3.723  23.892  0.00  0.00    +0.225 A 
ATOM      6  N   UNL     1       2.974   4.144  23.635  0.00  0.00    -0.220 NA
ATOM      7  N   UNL     1       5.884   5.442  21.163  0.00  0.00    -0.241 N 
ATOM      8  C   UNL     1       2.685   4.961  22.578  0.00  0.00    +0.131 A 
ATOM      9  N   UNL     1       5.204   6.144  20.260  0.00  0.00    -0.168 NA
ENDROOT
BRANCH   7  10
ATOM     10  C   UNL     1       7.333   5.226  21.124  0.00  0.00    +0.127 C 
ATOM     11  C   UNL     1       7.935   5.885  19.875  0.00  0.00    +0.135 C 
ATOM     12  N   UNL     1       9.385   5.639  19.827  0.00  0.00    -0.296 N 
ATOM     13  C   UNL     1      10.045   5.499  18.552  0.00  0.00    +0.240 C 
ATOM     14  O   UNL     1       9.486   5.946  17.513  0.00  0.00    -0.271 OA
ATOM     15  C   UNL     1      10.162   5.621  21.079  0.00  0.00    +0.108 C 
ATOM     16  C   UNL     1       9.404   6.316  22.216  0.00  0.00    +0.021 C 
ATOM     17  C   UNL     1       7.999   5.726  22.430  0.00  0.00    +0.030 C 
BRANCH  13  18
ATOM     18  C   UNL     1      11.362   4.832  18.443  0.00  0.00    +0.074 C 
ATOM     19  C   UNL     1      12.393   5.387  17.805  0.00  0.00    +0.042 C 
BRANCH  19  20
ATOM     20  S   UNL     1      13.962   4.531  17.708  0.00  0.00    -0.150 S 
ATOM     21  H   UNL     1      14.132   4.881  16.355  0.00  0.00    +0.107 HD
ENDBRANCH  19  20
ENDBRANCH  13  18
ENDBRANCH   7  10
BRANCH   1  24
ATOM     22  C   UNL     1       1.828   8.611  18.650  0.00  0.00    +0.038 A 
ATOM     23  C   UNL     1       2.820   8.049  19.474  0.00  0.00    +0.023 A 
ATOM     24  C   UNL     1       2.835   6.671  19.733  0.00  0.00    +0.004 A 
ATOM     25  C   UNL     1       1.881   5.841  19.126  0.00  0.00    +0.010 A 
ATOM     26  C   UNL     1       0.896   6.390  18.305  0.00  0.00    +0.001 A 
ATOM     27  C   UNL     1       0.862   7.766  18.073  0.00  0.00    +0.013 A 
BRANCH  22  30
ATOM     28  N   UNL     1       0.740  10.652  17.597  0.00  0.00    -0.281 N 
ATOM     29  H   UNL     1      -0.187  10.170  17.554  0.00  0.00    +0.155 HD
ATOM     30  C   UNL     1       1.767  10.075  18.423  0.00  0.00    +0.248 C 
ATOM     31  O   UNL     1       2.616  10.827  18.978  0.00  0.00    -0.270 OA
BRANCH  28  36
ATOM     32  C   UNL     1       1.901  13.257  15.141  0.00  0.00    -0.040 A 
ATOM     33  C   UNL     1       1.232  14.388  15.657  0.00  0.00    +0.004 A 
ATOM     34  C   UNL     1       0.411  14.290  16.781  0.00  0.00    +0.002 A 
ATOM     35  C   UNL     1       0.234  13.064  17.418  0.00  0.00    +0.023 A 
ATOM     36  C   UNL     1       0.882  11.918  16.934  0.00  0.00    +0.034 A 
ATOM     37  C   UNL     1       1.723  12.023  15.815  0.00  0.00    +0.027 A 
BRANCH  32  39
ATOM     38  C   UNL     1       4.166  14.080  14.218  0.00  0.00    +0.015 C 
ATOM     39  C   UNL     1       2.807  13.409  13.900  0.00  0.00    -0.013 C 
ATOM     40  C   UNL     1       2.085  14.276  12.846  0.00  0.00    +0.015 C 
ATOM     41  C   UNL     1       3.108  12.016  13.300  0.00  0.00    +0.015 C 
ENDBRANCH  32  39
ENDBRANCH  28  36
ENDBRANCH  22  30
ENDBRANCH   1  24
BRANCH   8  42
ATOM     42  N   UNL     1       1.358   5.462  22.411  0.00  0.00    -0.342 N 
ATOM     43  H   UNL     1       0.586   4.807  22.149  0.00  0.00    +0.144 HD
ATOM     44  H   UNL     1       1.101   6.436  22.677  0.00  0.00    +0.144 HD
ENDBRANCH   8  42
TORSDOF 8
ENDMDL
MODEL 4
REMARK VINA RESULT:   -10.752      3.530      4.054
REMARK INTER + INTRA:         -15.915
REMARK INTER:                 -15.118
REMARK INTRA:                  -0.797
REMARK UNBOUND:                -0.764
REMARK  Name = 
REMARK  11 active torsions:
REMARK  status: ('A' for Active; 'I' for Inactive)
REMARK    1  A    between atoms: C_1  and  C_2
REMARK    2  A    between atoms: C_2  and  C_3
REMARK    3  A    between atoms: C_2  and  C_4
REMARK    4  A    between atoms: C_2  and  C_5
REMARK    5  A    between atoms: C_7  and  N_11
REMARK    6  A    between atoms: C_12  and  C_14
REMARK    7  A    between atoms: C_18  and  C_20
REMARK    8  A    between atoms: N_22  and  C_30
REMARK    9  A    between atoms: C_27  and  N_29
REMARK   10  A    between atoms: C_36  and  C_38
REMARK   11  A    between atoms: C_39  and  S_40
REMARK                            x       y       z     vdW  Elec       q    Type
REMARK                         _______ _______ _______ _____ _____    ______ ____
ROOT
ATOM      1  C   UNL     1       5.281   6.833  19.665  0.00  0.00    +0.105 A 
ATOM      2  C   UNL     1       5.704   5.980  20.680  0.00  0.00    +0.086 A 
ATOM      3  C   UNL     1       7.063   5.998  20.592  0.00  0.00    +0.164 A 
ATOM      4  N   UNL     1       7.856   5.246  21.396  0.00  0.00    -0.216 NA
ATOM      5  C   UNL     1       7.259   4.459  22.337  0.00  0.00    +0.225 A 
ATOM      6  N   UNL     1       5.897   4.456  22.477  0.00  0.00    -0.220 NA
ATOM      7  N   UNL     1       7.458   6.827  19.612  0.00  0.00    -0.241 N 
ATOM      8  C   UNL     1       5.090   5.212  21.675  0.00  0.00    +0.131 A 
ATOM      9  N   UNL     1       6.373   7.334  19.035  0.00  0.00    -0.168 NA
ENDROOT
BRANCH   7  10
ATOM     10  C   UNL     1       8.832   7.102  19.181  0.00  0.00    +0.127 C 
ATOM     11  C   UNL     1       9.438   5.857  18.516  0.00  0.00    +0.135 C 
ATOM     12  N   UNL     1      10.826   6.132  18.112  0.00  0.00    -0.296 N 
ATOM     13  C   UNL     1      11.801   5.068  18.136  0.00  0.00    +0.240 C 
ATOM     14  O   UNL     1      11.410   3.869  18.135  0.00  0.00    -0.271 OA
ATOM     15  C   UNL     1      11.187   7.468  17.607  0.00  0.00    +0.108 C 
ATOM     16  C   UNL     1       9.948   8.246  17.152  0.00  0.00    +0.021 C 
ATOM     17  C   UNL     1       8.879   8.343  18.256  0.00  0.00    +0.030 C 
BRANCH  13  18
ATOM     18  C   UNL     1      13.252   5.363  18.173  0.00  0.00    +0.074 C 
ATOM     19  C   UNL     1      14.131   4.549  18.759  0.00  0.00    +0.042 C 
BRANCH  19  20
ATOM     20  S   UNL     1      15.872   4.959  18.770  0.00  0.00    -0.150 S 
ATOM     21  H   UNL     1      16.090   4.308  17.542  0.00  0.00    +0.107 HD
ENDBRANCH  19  20
ENDBRANCH  13  18
ENDBRANCH   7  10
BRANCH   1  24
ATOM     22  C   UNL     1       2.178   8.676  18.531  0.00  0.00    +0.038 A 
ATOM     23  C   UNL     1       3.483   8.411  18.983  0.00  0.00    +0.023 A 
ATOM     24  C   UNL     1       3.907   7.092  19.204  0.00  0.00    +0.004 A 
ATOM     25  C   UNL     1       3.036   6.029  18.927  0.00  0.00    +0.010 A 
ATOM     26  C   UNL     1       1.741   6.283  18.475  0.00  0.00    +0.001 A 
ATOM     27  C   UNL     1       1.309   7.597  18.285  0.00  0.00    +0.013 A 
BRANCH  22  30
ATOM     28  N   UNL     1       1.034  10.476  17.148  0.00  0.00    -0.281 N 
ATOM     29  H   UNL     1       0.473   9.760  16.630  0.00  0.00    +0.155 HD
ATOM     30  C   UNL     1       1.701  10.069  18.356  0.00  0.00    +0.248 C 
ATOM     31  O   UNL     1       1.867  10.905  19.288  0.00  0.00    -0.270 OA
BRANCH  28  36
ATOM     32  C   UNL     1       1.739  13.546  15.089  0.00  0.00    -0.040 A 
ATOM     33  C   UNL     1       0.987  14.498  15.812  0.00  0.00    +0.004 A 
ATOM     34  C   UNL     1       0.258  14.132  16.944  0.00  0.00    +0.002 A 
ATOM     35  C   UNL     1       0.258  12.811  17.383  0.00  0.00    +0.023 A 
ATOM     36  C   UNL     1       0.993  11.837  16.691  0.00  0.00    +0.034 A 
ATOM     37  C   UNL     1       1.742  12.211  15.564  0.00  0.00    +0.027 A 
BRANCH  32  39
ATOM     38  C   UNL     1       2.934  12.816  12.922  0.00  0.00    +0.015 C 
ATOM     39  C   UNL     1       2.539  13.993  13.846  0.00  0.00    -0.013 C 
ATOM     40  C   UNL     1       3.836  14.694  14.302  0.00  0.00    +0.015 C 
ATOM     41  C   UNL     1       1.692  14.977  13.006  0.00  0.00    +0.015 C 
ENDBRANCH  32  39
ENDBRANCH  28  36
ENDBRANCH  22  30
ENDBRANCH   1  24
BRANCH   8  42
ATOM     42  N   UNL     1       3.685   5.260  21.926  0.00  0.00    -0.342 N 
ATOM     43  H   UNL     1       3.169   6.163  21.820  0.00  0.00    +0.144 HD
ATOM     44  H   UNL     1       3.125   4.394  22.078  0.00  0.00    +0.144 HD
ENDBRANCH   8  42
TORSDOF 8
ENDMDL
MODEL 5
REMARK VINA RESULT:   -10.328      5.026      6.348
REMARK INTER + INTRA:         -15.318
REMARK INTER:                 -14.655
REMARK INTRA:                  -0.663
REMARK UNBOUND:                -0.764
REMARK  Name = 
REMARK  11 active torsions:
REMARK  status: ('A' for Active; 'I' for Inactive)
REMARK    1  A    between atoms: C_1  and  C_2
REMARK    2  A    between atoms: C_2  and  C_3
REMARK    3  A    between atoms: C_2  and  C_4
REMARK    4  A    between atoms: C_2  and  C_5
REMARK    5  A    between atoms: C_7  and  N_11
REMARK    6  A    between atoms: C_12  and  C_14
REMARK    7  A    between atoms: C_18  and  C_20
REMARK    8  A    between atoms: N_22  and  C_30
REMARK    9  A    between atoms: C_27  and  N_29
REMARK   10  A    between atoms: C_36  and  C_38
REMARK   11  A    between atoms: C_39  and  S_40
REMARK                            x       y       z     vdW  Elec       q    Type
REMARK                         _______ _______ _______ _____ _____    ______ ____
ROOT
ATOM      1  C   UNL     1       6.358   7.280  18.986  0.00  0.00    +0.105 A 
ATOM      2  C   UNL     1       7.114   6.470  19.828  0.00  0.00    +0.086 A 
ATOM      3  C   UNL     1       8.404   6.720  19.471  0.00  0.00    +0.164 A 
ATOM      4  N   UNL     1       9.455   6.081  20.040  0.00  0.00    -0.216 NA
ATOM      5  C   UNL     1       9.201   5.166  21.020  0.00  0.00    +0.225 A 
ATOM      6  N   UNL     1       7.917   4.927  21.430  0.00  0.00    -0.220 NA
ATOM      7  N   UNL     1       8.448   7.643  18.496  0.00  0.00    -0.241 N 
ATOM      8  C   UNL     1       6.850   5.570  20.866  0.00  0.00    +0.131 A 
ATOM      9  N   UNL     1       7.200   7.984  18.189  0.00  0.00    -0.168 NA
ENDROOT
BRANCH   7  10
ATOM     10  C   UNL     1       9.640   8.163  17.820  0.00  0.00    +0.127 C 
ATOM     11  C   UNL     1       9.280   8.641  16.406  0.00  0.00    +0.135 C 
ATOM     12  N   UNL     1      10.487   9.135  15.722  0.00  0.00    -0.296 N 
ATOM     13  C   UNL     1      10.614   8.976  14.294  0.00  0.00    +0.240 C 
ATOM     14  O   UNL     1       9.582   8.771  13.598  0.00  0.00    -0.271 OA
ATOM     15  C   UNL     1      11.513   9.861  16.490  0.00  0.00    +0.108 C 
ATOM     16  C   UNL     1      10.950  10.389  17.814  0.00  0.00    +0.021 C 
ATOM     17  C   UNL     1      10.309   9.276  18.663  0.00  0.00    +0.030 C 
BRANCH  13  18
ATOM     18  C   UNL     1      11.939   9.041  13.634  0.00  0.00    +0.074 C 
ATOM     19  C   UNL     1      12.073   9.243  12.322  0.00  0.00    +0.042 C 
BRANCH  19  20
ATOM     20  S   UNL     1      13.701   9.312  11.583  0.00  0.00    -0.150 S 
ATOM     21  H   UNL     1      14.168  10.211  12.560  0.00  0.00    +0.107 HD
ENDBRANCH  19  20
ENDBRANCH  13  18
ENDBRANCH   7  10
BRANCH   1  24
ATOM     22  C   UNL     1       2.851   8.613  18.496  0.00  0.00    +0.038 A 
ATOM     23  C   UNL     1       4.248   8.555  18.657  0.00  0.00    +0.023 A 
ATOM     24  C   UNL     1       4.894   7.323  18.832  0.00  0.00    +0.004 A 
ATOM     25  C   UNL     1       4.147   6.137  18.798  0.00  0.00    +0.010 A 
ATOM     26  C   UNL     1       2.762   6.186  18.635  0.00  0.00    +0.001 A 
ATOM     27  C   UNL     1       2.115   7.415  18.493  0.00  0.00    +0.013 A 
BRANCH  22  30
ATOM     28  N   UNL     1       1.482  10.284  17.157  0.00  0.00    -0.281 N 
ATOM     29  H   UNL     1       1.076   9.521  16.568  0.00  0.00    +0.155 HD
ATOM     30  C   UNL     1       2.153   9.916  18.375  0.00  0.00    +0.248 C 
ATOM     31  O   UNL     1       2.131  10.704  19.362  0.00  0.00    -0.270 OA
BRANCH  28  36
ATOM     32  C   UNL     1       1.690  13.534  15.270  0.00  0.00    -0.040 A 
ATOM     33  C   UNL     1       0.813  14.321  16.050  0.00  0.00    +0.004 A 
ATOM     34  C   UNL     1       0.163  13.788  17.163  0.00  0.00    +0.002 A 
ATOM     35  C   UNL     1       0.368  12.459  17.528  0.00  0.00    +0.023 A 
ATOM     36  C   UNL     1       1.231  11.647  16.778  0.00  0.00    +0.034 A 
ATOM     37  C   UNL     1       1.900  12.191  15.670  0.00  0.00    +0.027 A 
BRANCH  32  39
ATOM     38  C   UNL     1       1.522  15.208  13.313  0.00  0.00    +0.015 C 
ATOM     39  C   UNL     1       2.396  14.164  14.050  0.00  0.00    -0.013 C 
ATOM     40  C   UNL     1       2.758  13.052  13.043  0.00  0.00    +0.015 C 
ATOM     41  C   UNL     1       3.687  14.883  14.508  0.00  0.00    +0.015 C 
ENDBRANCH  32  39
ENDBRANCH  28  36
ENDBRANCH  22  30
ENDBRANCH   1  24
BRANCH   8  42
ATOM     42  N   UNL     1       5.540   5.369  21.398  0.00  0.00    -0.342 N 
ATOM     43  H   UNL     1       5.424   4.947  22.347  0.00  0.00    +0.144 HD
ATOM     44  H   UNL     1       4.693   5.757  20.930  0.00  0.00    +0.144 HD
ENDBRANCH   8  42
TORSDOF 8
ENDMDL
MODEL 6
REMARK VINA RESULT:    -9.904      4.580     10.877
REMARK INTER + INTRA:         -14.721
REMARK INTER:                 -14.301
REMARK INTRA:                  -0.420
REMARK UNBOUND:                -0.764
REMARK  Name = 
REMARK  11 active torsions:
REMARK  status: ('A' for Active; 'I' for Inactive)
REMARK    1  A    between atoms: C_1  and  C_2
REMARK    2  A    between atoms: C_2  and  C_3
REMARK    3  A    between atoms: C_2  and  C_4
REMARK    4  A    between atoms: C_2  and  C_5
REMARK    5  A    between atoms: C_7  and  N_11
REMARK    6  A    between atoms: C_12  and  C_14
REMARK    7  A    between atoms: C_18  and  C_20
REMARK    8  A    between atoms: N_22  and  C_30
REMARK    9  A    between atoms: C_27  and  N_29
REMARK   10  A    between atoms: C_36  and  C_38
REMARK   11  A    between atoms: C_39  and  S_40
REMARK                            x       y       z     vdW  Elec       q    Type
REMARK                         _______ _______ _______ _____ _____    ______ ____
ROOT
ATOM      1  C   UNL     1       3.837   6.271  21.038  0.00  0.00    +0.105 A 
ATOM      2  C   UNL     1       3.229   7.472  20.688  0.00  0.00    +0.086 A 
ATOM      3  C   UNL     1       4.055   8.010  19.748  0.00  0.00    +0.164 A 
ATOM      4  N   UNL     1       3.828   9.221  19.183  0.00  0.00    -0.216 NA
ATOM      5  C   UNL     1       2.715   9.912  19.564  0.00  0.00    +0.225 A 
ATOM      6  N   UNL     1       1.843   9.377  20.474  0.00  0.00    -0.220 NA
ATOM      7  N   UNL     1       5.089   7.186  19.509  0.00  0.00    -0.241 N 
ATOM      8  C   UNL     1       2.062   8.155  21.047  0.00  0.00    +0.131 A 
ATOM      9  N   UNL     1       4.966   6.124  20.300  0.00  0.00    -0.168 NA
ENDROOT
BRANCH   7  10
ATOM     10  C   UNL     1       6.209   7.410  18.590  0.00  0.00    +0.127 C 
ATOM     11  C   UNL     1       7.346   6.422  18.890  0.00  0.00    +0.135 C 
ATOM     12  N   UNL     1       8.478   6.672  17.984  0.00  0.00    -0.296 N 
ATOM     13  C   UNL     1       9.826   6.442  18.444  0.00  0.00    +0.240 C 
ATOM     14  O   UNL     1      10.021   5.697  19.444  0.00  0.00    -0.271 OA
ATOM     15  C   UNL     1       8.220   7.074  16.591  0.00  0.00    +0.108 C 
ATOM     16  C   UNL     1       6.788   6.731  16.167  0.00  0.00    +0.021 C 
ATOM     17  C   UNL     1       5.737   7.330  17.117  0.00  0.00    +0.030 C 
BRANCH  13  18
ATOM     18  C   UNL     1      10.982   7.073  17.767  0.00  0.00    +0.074 C 
ATOM     19  C   UNL     1      11.898   6.363  17.107  0.00  0.00    +0.042 C 
BRANCH  19  20
ATOM     20  S   UNL     1      13.273   7.183  16.308  0.00  0.00    -0.150 S 
ATOM     21  H   UNL     1      12.513   8.344  16.071  0.00  0.00    +0.107 HD
ENDBRANCH  19  20
ENDBRANCH  13  18
ENDBRANCH   7  10
BRANCH   1  24
ATOM     22  C   UNL     1       4.101   3.896  23.971  0.00  0.00    +0.038 A 
ATOM     23  C   UNL     1       4.447   4.783  22.936  0.00  0.00    +0.023 A 
ATOM     24  C   UNL     1       3.458   5.333  22.108  0.00  0.00    +0.004 A 
ATOM     25  C   UNL     1       2.109   5.031  22.345  0.00  0.00    +0.010 A 
ATOM     26  C   UNL     1       1.757   4.154  23.371  0.00  0.00    +0.001 A 
ATOM     27  C   UNL     1       2.745   3.582  24.175  0.00  0.00    +0.013 A 
BRANCH  22  30
ATOM     28  N   UNL     1       4.790   2.400  25.906  0.00  0.00    -0.281 N 
ATOM     29  H   UNL     1       3.902   1.852  25.836  0.00  0.00    +0.155 HD
ATOM     30  C   UNL     1       5.146   3.260  24.809  0.00  0.00    +0.248 C 
ATOM     31  O   UNL     1       6.364   3.462  24.545  0.00  0.00    -0.270 OA
BRANCH  28  36
ATOM     32  C   UNL     1       6.299   2.687  29.343  0.00  0.00    -0.040 A 
ATOM     33  C   UNL     1       7.358   1.762  29.218  0.00  0.00    +0.004 A 
ATOM     34  C   UNL     1       7.562   1.054  28.033  0.00  0.00    +0.002 A 
ATOM     35  C   UNL     1       6.716   1.249  26.943  0.00  0.00    +0.023 A 
ATOM     36  C   UNL     1       5.653   2.160  27.030  0.00  0.00    +0.034 A 
ATOM     37  C   UNL     1       5.462   2.885  28.216  0.00  0.00    +0.027 A 
BRANCH  32  39
ATOM     38  C   UNL     1       4.639   3.837  30.949  0.00  0.00    +0.015 C 
ATOM     39  C   UNL     1       6.113   3.456  30.668  0.00  0.00    -0.013 C 
ATOM     40  C   UNL     1       6.939   4.760  30.620  0.00  0.00    +0.015 C 
ATOM     41  C   UNL     1       6.598   2.585  31.850  0.00  0.00    +0.015 C 
ENDBRANCH  32  39
ENDBRANCH  28  36
ENDBRANCH  22  30
ENDBRANCH   1  24
BRANCH   8  42
ATOM     42  N   UNL     1       1.073   7.589  21.908  0.00  0.00    -0.342 N 
ATOM     43  H   UNL     1       0.066   7.614  21.628  0.00  0.00    +0.144 HD
ATOM     44  H   UNL     1       1.332   7.026  22.745  0.00  0.00    +0.144 HD
ENDBRANCH   8  42
TORSDOF 8
ENDMDL
MODEL 7
REMARK VINA RESULT:    -9.750      8.966     12.016
REMARK INTER + INTRA:         -14.503
REMARK INTER:                 -13.103
REMARK INTRA:                  -1.400
REMARK UNBOUND:                -0.764
REMARK  Name = 
REMARK  11 active torsions:
REMARK  status: ('A' for Active; 'I' for Inactive)
REMARK    1  A    between atoms: C_1  and  C_2
REMARK    2  A    between atoms: C_2  and  C_3
REMARK    3  A    between atoms: C_2  and  C_4
REMARK    4  A    between atoms: C_2  and  C_5
REMARK    5  A    between atoms: C_7  and  N_11
REMARK    6  A    between atoms: C_12  and  C_14
REMARK    7  A    between atoms: C_18  and  C_20
REMARK    8  A    between atoms: N_22  and  C_30
REMARK    9  A    between atoms: C_27  and  N_29
REMARK   10  A    between atoms: C_36  and  C_38
REMARK   11  A    between atoms: C_39  and  S_40
REMARK                            x       y       z     vdW  Elec       q    Type
REMARK                         _______ _______ _______ _____ _____    ______ ____
ROOT
ATOM      1  C   UNL     1      11.261   8.936  15.401  0.00  0.00    +0.105 A 
ATOM      2  C   UNL     1      11.508  10.291  15.602  0.00  0.00    +0.086 A 
ATOM      3  C   UNL     1      12.100  10.702  14.446  0.00  0.00    +0.164 A 
ATOM      4  N   UNL     1      12.539  11.971  14.263  0.00  0.00    -0.216 NA
ATOM      5  C   UNL     1      12.362  12.868  15.276  0.00  0.00    +0.225 A 
ATOM      6  N   UNL     1      11.730  12.494  16.432  0.00  0.00    -0.220 NA
ATOM      7  N   UNL     1      12.186   9.682  13.577  0.00  0.00    -0.241 N 
ATOM      8  C   UNL     1      11.280  11.218  16.624  0.00  0.00    +0.131 A 
ATOM      9  N   UNL     1      11.682   8.596  14.158  0.00  0.00    -0.168 NA
ENDROOT
BRANCH   7  10
ATOM     10  C   UNL     1      12.780   9.704  12.237  0.00  0.00    +0.127 C 
ATOM     11  C   UNL     1      13.420   8.346  11.918  0.00  0.00    +0.135 C 
ATOM     12  N   UNL     1      14.040   8.385  10.584  0.00  0.00    -0.296 N 
ATOM     13  C   UNL     1      15.228   7.608  10.325  0.00  0.00    +0.240 C 
ATOM     14  O   UNL     1      15.513   6.640  11.082  0.00  0.00    -0.271 OA
ATOM     15  C   UNL     1      13.395   9.150   9.504  0.00  0.00    +0.108 C 
ATOM     16  C   UNL     1      11.920   9.425   9.818  0.00  0.00    +0.021 C 
ATOM     17  C   UNL     1      11.732  10.122  11.177  0.00  0.00    +0.030 C 
BRANCH  13  18
ATOM     18  C   UNL     1      16.123   7.937   9.191  0.00  0.00    +0.074 C 
ATOM     19  C   UNL     1      17.221   8.679   9.340  0.00  0.00    +0.042 C 
BRANCH  19  20
ATOM     20  S   UNL     1      18.263   9.041   7.932  0.00  0.00    -0.150 S 
ATOM     21  H   UNL     1      18.869   7.772   7.984  0.00  0.00    +0.107 HD
ENDBRANCH  19  20
ENDBRANCH  13  18
ENDBRANCH   7  10
BRANCH   1  24
ATOM     22  C   UNL     1       8.888   6.947  17.577  0.00  0.00    +0.038 A 
ATOM     23  C   UNL     1       9.388   7.894  16.664  0.00  0.00    +0.023 A 
ATOM     24  C   UNL     1      10.758   7.947  16.369  0.00  0.00    +0.004 A 
ATOM     25  C   UNL     1      11.628   7.015  16.953  0.00  0.00    +0.010 A 
ATOM     26  C   UNL     1      11.141   6.071  17.857  0.00  0.00    +0.001 A 
ATOM     27  C   UNL     1       9.782   6.040  18.175  0.00  0.00    +0.013 A 
BRANCH  22  30
ATOM     28  N   UNL     1       7.000   7.487  19.189  0.00  0.00    -0.281 N 
ATOM     29  H   UNL     1       7.537   8.288  19.594  0.00  0.00    +0.155 HD
ATOM     30  C   UNL     1       7.452   6.928  17.943  0.00  0.00    +0.248 C 
ATOM     31  O   UNL     1       6.612   6.430  17.142  0.00  0.00    -0.270 OA
BRANCH  28  36
ATOM     32  C   UNL     1       3.411   7.522  20.323  0.00  0.00    -0.040 A 
ATOM     33  C   UNL     1       3.405   6.367  21.136  0.00  0.00    +0.004 A 
ATOM     34  C   UNL     1       4.554   5.592  21.297  0.00  0.00    +0.002 A 
ATOM     35  C   UNL     1       5.736   5.947  20.652  0.00  0.00    +0.023 A 
ATOM     36  C   UNL     1       5.781   7.086  19.836  0.00  0.00    +0.034 A 
ATOM     37  C   UNL     1       4.629   7.875  19.691  0.00  0.00    +0.027 A 
BRANCH  32  39
ATOM     38  C   UNL     1       2.382   9.798  19.675  0.00  0.00    +0.015 C 
ATOM     39  C   UNL     1       2.120   8.357  20.178  0.00  0.00    -0.013 C 
ATOM     40  C   UNL     1       1.420   8.453  21.550  0.00  0.00    +0.015 C 
ATOM     41  C   UNL     1       1.171   7.678  19.163  0.00  0.00    +0.015 C 
ENDBRANCH  32  39
ENDBRANCH  28  36
ENDBRANCH  22  30
ENDBRANCH   1  24
BRANCH   8  42
ATOM     42  N   UNL     1      10.533  10.899  17.800  0.00  0.00    -0.342 N 
ATOM     43  H   UNL     1       9.808  11.566  18.149  0.00  0.00    +0.144 HD
ATOM     44  H   UNL     1      10.588   9.960  18.247  0.00  0.00    +0.144 HD
ENDBRANCH   8  42
TORSDOF 8
ENDMDL
MODEL 8
REMARK VINA RESULT:    -9.513      8.055     11.328
REMARK INTER + INTRA:         -14.170
REMARK INTER:                 -13.126
REMARK INTRA:                  -1.044
REMARK UNBOUND:                -0.764
REMARK  Name = 
REMARK  11 active torsions:
REMARK  status: ('A' for Active; 'I' for Inactive)
REMARK    1  A    between atoms: C_1  and  C_2
REMARK    2  A    between atoms: C_2  and  C_3
REMARK    3  A    between atoms: C_2  and  C_4
REMARK    4  A    between atoms: C_2  and  C_5
REMARK    5  A    between atoms: C_7  and  N_11
REMARK    6  A    between atoms: C_12  and  C_14
REMARK    7  A    between atoms: C_18  and  C_20
REMARK    8  A    between atoms: N_22  and  C_30
REMARK    9  A    between atoms: C_27  and  N_29
REMARK   10  A    between atoms: C_36  and  C_38
REMARK   11  A    between atoms: C_39  and  S_40
REMARK                            x       y       z     vdW  Elec       q    Type
REMARK                         _______ _______ _______ _____ _____    ______ ____
ROOT
ATOM      1  C   UNL     1      10.436   7.730  16.100  0.00  0.00    +0.105 A 
ATOM      2  C   UNL     1      11.552   7.105  16.648  0.00  0.00    +0.086 A 
ATOM      3  C   UNL     1      12.611   7.722  16.053  0.00  0.00    +0.164 A 
ATOM      4  N   UNL     1      13.895   7.360  16.293  0.00  0.00    -0.216 NA
ATOM      5  C   UNL     1      14.125   6.349  17.180  0.00  0.00    +0.225 A 
ATOM      6  N   UNL     1      13.082   5.742  17.827  0.00  0.00    -0.220 NA
ATOM      7  N   UNL     1      12.183   8.682  15.217  0.00  0.00    -0.241 N 
ATOM      8  C   UNL     1      11.785   6.102  17.594  0.00  0.00    +0.131 A 
ATOM      9  N   UNL     1      10.854   8.687  15.234  0.00  0.00    -0.168 NA
ENDROOT
BRANCH   7  10
ATOM     10  C   UNL     1      13.004   9.552  14.369  0.00  0.00    +0.127 C 
ATOM     11  C   UNL     1      12.518   9.486  12.914  0.00  0.00    +0.135 C 
ATOM     12  N   UNL     1      13.364  10.338  12.064  0.00  0.00    -0.296 N 
ATOM     13  C   UNL     1      13.612   9.960  10.694  0.00  0.00    +0.240 C 
ATOM     14  O   UNL     1      12.836   9.142  10.127  0.00  0.00    -0.271 OA
ATOM     15  C   UNL     1      13.882  11.611  12.595  0.00  0.00    +0.108 C 
ATOM     16  C   UNL     1      13.079  12.074  13.816  0.00  0.00    +0.021 C 
ATOM     17  C   UNL     1      13.018  11.000  14.918  0.00  0.00    +0.030 C 
BRANCH  13  18
ATOM     18  C   UNL     1      14.768  10.508   9.948  0.00  0.00    +0.074 C 
ATOM     19  C   UNL     1      15.395   9.817   8.994  0.00  0.00    +0.042 C 
BRANCH  19  20
ATOM     20  S   UNL     1      16.785  10.534   8.127  0.00  0.00    -0.150 S 
ATOM     21  H   UNL     1      17.558  10.595   9.302  0.00  0.00    +0.107 HD
ENDBRANCH  19  20
ENDBRANCH  13  18
ENDBRANCH   7  10
BRANCH   1  24
ATOM     22  C   UNL     1       7.091   7.070  17.740  0.00  0.00    +0.038 A 
ATOM     23  C   UNL     1       8.448   7.390  17.557  0.00  0.00    +0.023 A 
ATOM     24  C   UNL     1       9.016   7.380  16.274  0.00  0.00    +0.004 A 
ATOM     25  C   UNL     1       8.211   7.094  15.162  0.00  0.00    +0.010 A 
ATOM     26  C   UNL     1       6.863   6.779  15.335  0.00  0.00    +0.001 A 
ATOM     27  C   UNL     1       6.306   6.758  16.615  0.00  0.00    +0.013 A 
BRANCH  22  30
ATOM     28  N   UNL     1       6.030   5.772  19.650  0.00  0.00    -0.281 N 
ATOM     29  H   UNL     1       6.504   4.890  19.351  0.00  0.00    +0.155 HD
ATOM     30  C   UNL     1       6.499   7.015  19.099  0.00  0.00    +0.248 C 
ATOM     31  O   UNL     1       6.423   8.071  19.787  0.00  0.00    -0.270 OA
BRANCH  28  36
ATOM     32  C   UNL     1       2.713   6.069  21.404  0.00  0.00    -0.040 A 
ATOM     33  C   UNL     1       3.080   5.618  22.691  0.00  0.00    +0.004 A 
ATOM     34  C   UNL     1       4.387   5.217  22.968  0.00  0.00    +0.002 A 
ATOM     35  C   UNL     1       5.360   5.254  21.972  0.00  0.00    +0.023 A 
ATOM     36  C   UNL     1       5.033   5.695  20.682  0.00  0.00    +0.034 A 
ATOM     37  C   UNL     1       3.722   6.117  20.410  0.00  0.00    +0.027 A 
BRANCH  32  39
ATOM     38  C   UNL     1       0.939   6.691  19.635  0.00  0.00    +0.015 C 
ATOM     39  C   UNL     1       1.257   6.512  21.140  0.00  0.00    -0.013 C 
ATOM     40  C   UNL     1       1.002   7.863  21.842  0.00  0.00    +0.015 C 
ATOM     41  C   UNL     1       0.279   5.452  21.697  0.00  0.00    +0.015 C 
ENDBRANCH  32  39
ENDBRANCH  28  36
ENDBRANCH  22  30
ENDBRANCH   1  24
BRANCH   8  42
ATOM     42  N   UNL     1      10.737   5.516  18.368  0.00  0.00    -0.342 N 
ATOM     43  H   UNL     1      10.904   5.282  19.373  0.00  0.00    +0.144 HD
ATOM     44  H   UNL     1       9.763   5.440  18.005  0.00  0.00    +0.144 HD
ENDBRANCH   8  42
TORSDOF 8
ENDMDL
MODEL 9
REMARK VINA RESULT:    -9.485      4.931      6.142
REMARK INTER + INTRA:         -14.130
REMARK INTER:                 -13.089
REMARK INTRA:                  -1.041
REMARK UNBOUND:                -0.764
REMARK  Name = 
REMARK  11 active torsions:
REMARK  status: ('A' for Active; 'I' for Inactive)
REMARK    1  A    between atoms: C_1  and  C_2
REMARK    2  A    between atoms: C_2  and  C_3
REMARK    3  A    between atoms: C_2  and  C_4
REMARK    4  A    between atoms: C_2  and  C_5
REMARK    5  A    between atoms: C_7  and  N_11
REMARK    6  A    between atoms: C_12  and  C_14
REMARK    7  A    between atoms: C_18  and  C_20
REMARK    8  A    between atoms: N_22  and  C_30
REMARK    9  A    between atoms: C_27  and  N_29
REMARK   10  A    between atoms: C_36  and  C_38
REMARK   11  A    between atoms: C_39  and  S_40
REMARK                            x       y       z     vdW  Elec       q    Type
REMARK                         _______ _______ _______ _____ _____    ______ ____
ROOT
ATOM      1  C   UNL     1       7.481   7.373  17.808  0.00  0.00    +0.105 A 
ATOM      2  C   UNL     1       8.090   7.680  16.595  0.00  0.00    +0.086 A 
ATOM      3  C   UNL     1       9.418   7.738  16.889  0.00  0.00    +0.164 A 
ATOM      4  N   UNL     1      10.357   8.061  15.965  0.00  0.00    -0.216 NA
ATOM      5  C   UNL     1       9.945   8.318  14.690  0.00  0.00    +0.225 A 
ATOM      6  N   UNL     1       8.620   8.224  14.356  0.00  0.00    -0.220 NA
ATOM      7  N   UNL     1       9.623   7.456  18.186  0.00  0.00    -0.241 N 
ATOM      8  C   UNL     1       7.667   7.896  15.279  0.00  0.00    +0.131 A 
ATOM      9  N   UNL     1       8.441   7.241  18.756  0.00  0.00    -0.168 NA
ENDROOT
BRANCH   7  10
ATOM     10  C   UNL     1      10.903   7.442  18.900  0.00  0.00    +0.127 C 
ATOM     11  C   UNL     1      11.805   6.328  18.350  0.00  0.00    +0.135 C 
ATOM     12  N   UNL     1      13.076   6.300  19.090  0.00  0.00    -0.296 N 
ATOM     13  C   UNL     1      13.755   5.044  19.297  0.00  0.00    +0.240 C 
ATOM     14  O   UNL     1      13.481   4.062  18.555  0.00  0.00    -0.271 OA
ATOM     15  C   UNL     1      13.684   7.564  19.541  0.00  0.00    +0.108 C 
ATOM     16  C   UNL     1      13.119   8.761  18.768  0.00  0.00    +0.021 C 
ATOM     17  C   UNL     1      11.583   8.832  18.838  0.00  0.00    +0.030 C 
BRANCH  13  18
ATOM     18  C   UNL     1      14.761   4.889  20.373  0.00  0.00    +0.074 C 
ATOM     19  C   UNL     1      16.051   4.663  20.118  0.00  0.00    +0.042 C 
BRANCH  19  20
ATOM     20  S   UNL     1      17.219   4.485  21.461  0.00  0.00    -0.150 S 
ATOM     21  H   UNL     1      16.442   3.486  22.078  0.00  0.00    +0.107 HD
ENDBRANCH  19  20
ENDBRANCH  13  18
ENDBRANCH   7  10
BRANCH   1  24
ATOM     22  C   UNL     1       3.891   8.449  18.330  0.00  0.00    +0.038 A 
ATOM     23  C   UNL     1       5.269   8.486  18.048  0.00  0.00    +0.023 A 
ATOM     24  C   UNL     1       6.042   7.318  18.119  0.00  0.00    +0.004 A 
ATOM     25  C   UNL     1       5.426   6.097  18.427  0.00  0.00    +0.010 A 
ATOM     26  C   UNL     1       4.060   6.051  18.705  0.00  0.00    +0.001 A 
ATOM     27  C   UNL     1       3.296   7.219  18.665  0.00  0.00    +0.013 A 
BRANCH  22  30
ATOM     28  N   UNL     1       2.081   9.911  17.308  0.00  0.00    -0.281 N 
ATOM     29  H   UNL     1       1.599   9.077  16.900  0.00  0.00    +0.155 HD
ATOM     30  C   UNL     1       3.079   9.690  18.320  0.00  0.00    +0.248 C 
ATOM     31  O   UNL     1       3.253  10.555  19.223  0.00  0.00    -0.270 OA
BRANCH  28  36
ATOM     32  C   UNL     1       1.763  13.133  15.389  0.00  0.00    -0.040 A 
ATOM     33  C   UNL     1       0.804  13.795  16.187  0.00  0.00    +0.004 A 
ATOM     34  C   UNL     1       0.270  13.187  17.323  0.00  0.00    +0.002 A 
ATOM     35  C   UNL     1       0.675  11.907  17.693  0.00  0.00    +0.023 A 
ATOM     36  C   UNL     1       1.625  11.219  16.925  0.00  0.00    +0.034 A 
ATOM     37  C   UNL     1       2.176  11.839  15.793  0.00  0.00    +0.027 A 
BRANCH  32  39
ATOM     38  C   UNL     1       1.259  14.588  13.317  0.00  0.00    +0.015 C 
ATOM     39  C   UNL     1       2.337  13.843  14.143  0.00  0.00    -0.013 C 
ATOM     40  C   UNL     1       3.001  12.797  13.223  0.00  0.00    +0.015 C 
ATOM     41  C   UNL     1       3.391  14.888  14.577  0.00  0.00    +0.015 C 
ENDBRANCH  32  39
ENDBRANCH  28  36
ENDBRANCH  22  30
ENDBRANCH   1  24
BRANCH   8  42
ATOM     42  N   UNL     1       6.314   7.705  14.864  0.00  0.00    -0.342 N 
ATOM     43  H   UNL     1       5.595   7.407  15.562  0.00  0.00    +0.144 HD
ATOM     44  H   UNL     1       5.987   7.986  13.916  0.00  0.00    +0.144 HD
ENDBRANCH   8  42
TORSDOF 8
ENDMDL
