REMARK VINA RESULT:   -12.194      0.000      0.000
REMARK INTER + INTRA:         -18.604
REMARK INTER:                 -17.185
REMARK INTRA:                  -1.419
REMARK UNBOUND:                -1.419
REMARK  8 active torsions:
REMARK  status: ('A' for Active; 'I' for Inactive)
REMARK    1  A    between atoms: S1_1  and  C22_32 
REMARK       I    between atoms: N1_4  and  C7_17 
REMARK    2  A    between atoms: N2_5  and  C1_11 
REMARK    3  A    between atoms: N6_9  and  C11_21 
REMARK    4  A    between atoms: N7_10  and  C27_37 
REMARK       I    between atoms: N7_10  and  C28_38 
REMARK    5  A    between atoms: C7_17  and  C12_22 
REMARK    6  A    between atoms: C9_19  and  C10_20 
REMARK    7  A    between atoms: C13_23  and  C16_26 
REMARK    8  A    between atoms: C21_31  and  C28_38 
REMARK viewdock state: V
ATOM      1  N2  UNK A   1       4.976   5.045  21.632  1.00  0.00    -0.244 N 
ATOM      2  N3  UNK A   1       4.493   5.761  20.600  1.00  0.00    -0.169 NA
ATOM      3  N4  UNK A   1       4.187   3.836  23.576  1.00  0.00    -0.222 NA
ATOM      4  N5  UNK A   1       1.756   3.916  23.763  1.00  0.00    -0.224 NA
ATOM      5  C6  UNK A   1       4.009   4.576  22.471  1.00  0.00     0.164 A 
ATOM      6  C8  UNK A   1       2.805   5.017  21.950  1.00  0.00     0.088 A 
ATOM      7  C9  UNK A   1       3.170   5.740  20.799  1.00  0.00     0.105 A 
ATOM      8  C11 UNK A   1       1.649   4.663  22.638  1.00  0.00     0.139 A 
ATOM      9  C14 UNK A   1       3.000   3.554  24.157  1.00  0.00     0.237 A 
ATOM     10  C10 UNK A   1       2.296   6.423  19.877  1.00  0.00    -0.004 A 
ATOM     11  C15 UNK A   1       2.498   7.774  19.596  1.00  0.00     0.031 A 
ATOM     12  C21 UNK A   1       1.652   8.435  18.705  1.00  0.00     0.033 A 
ATOM     13  C26 UNK A   1       0.605   7.744  18.096  1.00  0.00     0.017 A 
ATOM     14  C24 UNK A   1       0.403   6.392  18.377  1.00  0.00     0.002 A 
ATOM     15  C17 UNK A   1       1.249   5.732  19.268  1.00  0.00     0.014 A 
ATOM     16  C28 UNK A   1       1.861   9.844  18.412  1.00  0.00     0.256 C 
ATOM     17  O2  UNK A   1       2.659  10.493  19.108  1.00  0.00    -0.267 OA
ATOM     18  N7  UNK A   1       1.102  10.369  17.357  1.00  0.00    -0.323 N 
ATOM     19  H30 UNK A   1       0.512   9.733  16.826  1.00  0.00     0.169 HD
ATOM     20  C27 UNK A   1       1.076  11.697  16.865  1.00  0.00     0.035 A 
ATOM     21  C23 UNK A   1       1.822  12.038  15.736  1.00  0.00     0.037 A 
ATOM     22  C16 UNK A   1       1.796  13.347  15.253  1.00  0.00    -0.048 A 
ATOM     23  C25 UNK A   1       1.023  14.312  15.897  1.00  0.00     0.008 A 
ATOM     24  C29 UNK A   1       0.277  13.971  17.024  1.00  0.00     0.003 A 
ATOM     25  C30 UNK A   1       0.303  12.663  17.508  1.00  0.00     0.029 A 
ATOM     26  C13 UNK A   1       2.594  13.711  14.048  1.00  0.00    -0.024 C 
ATOM     27  C18 UNK A   1       1.821  14.717  13.140  1.00  0.00     0.019 C 
ATOM     28  C19 UNK A   1       3.946  14.382  14.446  1.00  0.00     0.019 C 
ATOM     29  C20 UNK A   1       2.982  12.519  13.111  1.00  0.00     0.019 C 
ATOM     30  C1  UNK A   1       6.480   4.838  21.765  1.00  0.00     0.130 C 
ATOM     31  C2  UNK A   1       7.022   5.481  23.051  1.00  0.00     0.030 C 
ATOM     32  C4  UNK A   1       7.238   6.982  22.891  1.00  0.00     0.022 C 
ATOM     33  C5  UNK A   1       8.146   7.271  21.706  1.00  0.00     0.126 C 
ATOM     34  N1  UNK A   1       7.645   6.676  20.465  1.00  0.00    -0.347 N 
ATOM     35  C3  UNK A   1       7.317   5.240  20.530  1.00  0.00     0.153 C 
ATOM     36  C7  UNK A   1       7.669   7.448  19.302  1.00  0.00     0.243 C 
ATOM     37  O1  UNK A   1       8.085   8.606  19.237  1.00  0.00    -0.268 OA
ATOM     38  C12 UNK A   1       7.165   6.834  18.056  1.00  0.00     0.080 C 
ATOM     39  C22 UNK A   1       7.568   7.342  16.888  1.00  0.00     0.047 C 
ATOM     40  S1  UNK A   1       7.030   6.691  15.380  1.00  0.00    -0.154 SA
ATOM     41  H33 UNK A   1       6.492   7.810  14.874  1.00  0.00     0.106 HD
ATOM     42  N6  UNK A   1       0.378   5.062  22.188  1.00  0.00    -0.383 N 
ATOM     43  H23 UNK A   1       0.271   5.764  21.469  1.00  0.00     0.157 HD
ATOM     44  H24 UNK A   1      -0.440   4.633  22.599  1.00  0.00     0.157 HD
ENDMDL
REMARK VINA RESULT:    -9.783      1.807      2.390
REMARK INTER + INTRA:         -15.206
REMARK INTER:                 -14.682
REMARK INTRA:                  -0.524
REMARK UNBOUND:                -1.419
REMARK  8 active torsions:
REMARK  status: ('A' for Active; 'I' for Inactive)
REMARK    1  A    between atoms: S1_1  and  C22_32 
REMARK       I    between atoms: N1_4  and  C7_17 
REMARK    2  A    between atoms: N2_5  and  C1_11 
REMARK    3  A    between atoms: N6_9  and  C11_21 
REMARK    4  A    between atoms: N7_10  and  C27_37 
REMARK       I    between atoms: N7_10  and  C28_38 
REMARK    5  A    between atoms: C7_17  and  C12_22 
REMARK    6  A    between atoms: C9_19  and  C10_20 
REMARK    7  A    between atoms: C13_23  and  C16_26 
REMARK    8  A    between atoms: C21_31  and  C28_38 
REMARK viewdock state: V
ATOM      1  N2  UNK A   1       6.048   5.543  20.803  1.00  0.00    -0.244 N 
ATOM      2  N3  UNK A   1       5.667   6.661  20.158  1.00  0.00    -0.169 NA
ATOM      3  N4  UNK A   1       5.168   3.919  22.369  1.00  0.00    -0.222 NA
ATOM      4  N5  UNK A   1       2.870   4.434  23.006  1.00  0.00    -0.224 NA
ATOM      5  C6  UNK A   1       5.079   5.021  21.608  1.00  0.00     0.164 A 
ATOM      6  C8  UNK A   1       3.985   5.859  21.481  1.00  0.00     0.088 A 
ATOM      7  C9  UNK A   1       4.410   6.848  20.575  1.00  0.00     0.105 A 
ATOM      8  C11 UNK A   1       2.850   5.533  22.216  1.00  0.00     0.139 A 
ATOM      9  C14 UNK A   1       4.012   3.704  23.033  1.00  0.00     0.237 A 
ATOM     10  C10 UNK A   1       3.656   7.978  20.092  1.00  0.00    -0.004 A 
ATOM     11  C15 UNK A   1       4.084   8.668  18.957  1.00  0.00     0.031 A 
ATOM     12  C21 UNK A   1       3.354   9.761  18.490  1.00  0.00     0.033 A 
ATOM     13  C26 UNK A   1       2.197  10.164  19.157  1.00  0.00     0.017 A 
ATOM     14  C24 UNK A   1       1.770   9.474  20.292  1.00  0.00     0.002 A 
ATOM     15  C17 UNK A   1       2.499   8.380  20.758  1.00  0.00     0.014 A 
ATOM     16  C28 UNK A   1       3.800  10.482  17.308  1.00  0.00     0.256 C 
ATOM     17  O2  UNK A   1       5.009  10.735  17.176  1.00  0.00    -0.267 OA
ATOM     18  N7  UNK A   1       2.795  10.862  16.408  1.00  0.00    -0.323 N 
ATOM     19  H30 UNK A   1       1.842  10.561  16.596  1.00  0.00     0.169 HD
ATOM     20  C27 UNK A   1       2.924  11.586  15.197  1.00  0.00     0.035 A 
ATOM     21  C23 UNK A   1       2.515  12.919  15.134  1.00  0.00     0.037 A 
ATOM     22  C16 UNK A   1       2.642  13.631  13.941  1.00  0.00    -0.048 A 
ATOM     23  C25 UNK A   1       3.178  13.012  12.813  1.00  0.00     0.008 A 
ATOM     24  C29 UNK A   1       3.586  11.680  12.876  1.00  0.00     0.003 A 
ATOM     25  C30 UNK A   1       3.459  10.968  14.068  1.00  0.00     0.029 A 
ATOM     26  C13 UNK A   1       2.204  15.055  13.874  1.00  0.00    -0.024 C 
ATOM     27  C18 UNK A   1       1.334  15.321  12.606  1.00  0.00     0.019 C 
ATOM     28  C19 UNK A   1       1.350  15.444  15.120  1.00  0.00     0.019 C 
ATOM     29  C20 UNK A   1       3.357  16.111  13.815  1.00  0.00     0.019 C 
ATOM     30  C1  UNK A   1       7.454   4.993  20.590  1.00  0.00     0.130 C 
ATOM     31  C2  UNK A   1       8.323   5.177  21.845  1.00  0.00     0.030 C 
ATOM     32  C4  UNK A   1       8.885   6.590  21.947  1.00  0.00     0.022 C 
ATOM     33  C5  UNK A   1       9.654   6.955  20.687  1.00  0.00     0.126 C 
ATOM     34  N1  UNK A   1       8.843   6.797  19.477  1.00  0.00    -0.347 N 
ATOM     35  C3  UNK A   1       8.177   5.492  19.319  1.00  0.00     0.153 C 
ATOM     36  C7  UNK A   1       8.893   7.803  18.510  1.00  0.00     0.243 C 
ATOM     37  O1  UNK A   1       9.573   8.826  18.596  1.00  0.00    -0.268 OA
ATOM     38  C12 UNK A   1       8.073   7.629  17.293  1.00  0.00     0.080 C 
ATOM     39  C22 UNK A   1       8.649   7.833  16.104  1.00  0.00     0.047 C 
ATOM     40  S1  UNK A   1       7.770   7.655  14.626  1.00  0.00    -0.154 SA
ATOM     41  H33 UNK A   1       8.453   8.547  13.893  1.00  0.00     0.106 HD
ATOM     42  N6  UNK A   1       1.687   6.322  22.153  1.00  0.00    -0.383 N 
ATOM     43  H23 UNK A   1       1.070   6.286  21.354  1.00  0.00     0.157 HD
ATOM     44  H24 UNK A   1       1.472   6.934  22.928  1.00  0.00     0.157 HD
ENDMDL
REMARK VINA RESULT:    -9.676      2.095      3.316
REMARK INTER + INTRA:         -15.055
REMARK INTER:                 -13.423
REMARK INTRA:                  -1.633
REMARK UNBOUND:                -1.419
REMARK  8 active torsions:
REMARK  status: ('A' for Active; 'I' for Inactive)
REMARK    1  A    between atoms: S1_1  and  C22_32 
REMARK       I    between atoms: N1_4  and  C7_17 
REMARK    2  A    between atoms: N2_5  and  C1_11 
REMARK    3  A    between atoms: N6_9  and  C11_21 
REMARK    4  A    between atoms: N7_10  and  C27_37 
REMARK       I    between atoms: N7_10  and  C28_38 
REMARK    5  A    between atoms: C7_17  and  C12_22 
REMARK    6  A    between atoms: C9_19  and  C10_20 
REMARK    7  A    between atoms: C13_23  and  C16_26 
REMARK    8  A    between atoms: C21_31  and  C28_38 
REMARK viewdock state: V
ATOM      1  N2  UNK A   1       8.576   5.656  19.729  1.00  0.00    -0.244 N 
ATOM      2  N3  UNK A   1       7.577   6.059  18.921  1.00  0.00    -0.169 NA
ATOM      3  N4  UNK A   1       8.959   5.069  22.047  1.00  0.00    -0.222 NA
ATOM      4  N5  UNK A   1       6.920   5.255  23.373  1.00  0.00    -0.224 NA
ATOM      5  C6  UNK A   1       8.188   5.468  21.023  1.00  0.00     0.164 A 
ATOM      6  C8  UNK A   1       6.838   5.769  21.064  1.00  0.00     0.088 A 
ATOM      7  C9  UNK A   1       6.522   6.126  19.740  1.00  0.00     0.105 A 
ATOM      8  C11 UNK A   1       6.201   5.651  22.296  1.00  0.00     0.139 A 
ATOM      9  C14 UNK A   1       8.235   4.991  23.185  1.00  0.00     0.237 A 
ATOM     10  C10 UNK A   1       5.240   6.537  19.225  1.00  0.00    -0.004 A 
ATOM     11  C15 UNK A   1       4.998   7.883  18.951  1.00  0.00     0.031 A 
ATOM     12  C21 UNK A   1       3.757   8.281  18.453  1.00  0.00     0.033 A 
ATOM     13  C26 UNK A   1       2.759   7.333  18.229  1.00  0.00     0.017 A 
ATOM     14  C24 UNK A   1       3.001   5.986  18.503  1.00  0.00     0.002 A 
ATOM     15  C17 UNK A   1       4.242   5.589  19.001  1.00  0.00     0.014 A 
ATOM     16  C28 UNK A   1       3.503   9.685  18.168  1.00  0.00     0.256 C 
ATOM     17  O2  UNK A   1       4.252  10.545  18.659  1.00  0.00    -0.267 OA
ATOM     18  N7  UNK A   1       2.388   9.953  17.361  1.00  0.00    -0.323 N 
ATOM     19  H30 UNK A   1       1.873   9.166  16.977  1.00  0.00     0.169 HD
ATOM     20  C27 UNK A   1       1.887  11.209  16.941  1.00  0.00     0.035 A 
ATOM     21  C23 UNK A   1       2.425  11.836  15.816  1.00  0.00     0.037 A 
ATOM     22  C16 UNK A   1       1.930  13.073  15.404  1.00  0.00    -0.048 A 
ATOM     23  C25 UNK A   1       0.897  13.683  16.115  1.00  0.00     0.008 A 
ATOM     24  C29 UNK A   1       0.359  13.058  17.239  1.00  0.00     0.003 A 
ATOM     25  C30 UNK A   1       0.854  11.821  17.652  1.00  0.00     0.029 A 
ATOM     26  C13 UNK A   1       2.505  13.742  14.202  1.00  0.00    -0.024 C 
ATOM     27  C18 UNK A   1       3.679  14.693  14.591  1.00  0.00     0.019 C 
ATOM     28  C19 UNK A   1       3.064  12.698  13.186  1.00  0.00     0.019 C 
ATOM     29  C20 UNK A   1       1.509  14.627  13.382  1.00  0.00     0.019 C 
ATOM     30  C1  UNK A   1       9.975   5.462  19.156  1.00  0.00     0.130 C 
ATOM     31  C2  UNK A   1      11.053   5.977  20.123  1.00  0.00     0.030 C 
ATOM     32  C4  UNK A   1      11.221   7.490  20.037  1.00  0.00     0.022 C 
ATOM     33  C5  UNK A   1      11.515   7.917  18.607  1.00  0.00     0.126 C 
ATOM     34  N1  UNK A   1      10.496   7.445  17.666  1.00  0.00    -0.347 N 
ATOM     35  C3  UNK A   1      10.188   6.005  17.725  1.00  0.00     0.153 C 
ATOM     36  C7  UNK A   1      10.026   8.335  16.699  1.00  0.00     0.243 C 
ATOM     37  O1  UNK A   1      10.405   9.500  16.573  1.00  0.00    -0.268 OA
ATOM     38  C12 UNK A   1       9.001   7.845  15.753  1.00  0.00     0.080 C 
ATOM     39  C22 UNK A   1       7.715   8.092  16.024  1.00  0.00     0.047 C 
ATOM     40  S1  UNK A   1       6.447   7.558  14.978  1.00  0.00    -0.154 SA
ATOM     41  H33 UNK A   1       5.771   6.816  15.867  1.00  0.00     0.106 HD
ATOM     42  N6  UNK A   1       4.831   5.934  22.440  1.00  0.00    -0.383 N 
ATOM     43  H23 UNK A   1       4.173   5.742  21.698  1.00  0.00     0.157 HD
ATOM     44  H24 UNK A   1       4.507   6.339  23.308  1.00  0.00     0.157 HD
ENDMDL
REMARK VINA RESULT:    -9.256      2.942      4.821
REMARK INTER + INTRA:         -14.463
REMARK INTER:                 -14.177
REMARK INTRA:                  -0.285
REMARK UNBOUND:                -1.419
REMARK  8 active torsions:
REMARK  status: ('A' for Active; 'I' for Inactive)
REMARK    1  A    between atoms: S1_1  and  C22_32 
REMARK       I    between atoms: N1_4  and  C7_17 
REMARK    2  A    between atoms: N2_5  and  C1_11 
REMARK    3  A    between atoms: N6_9  and  C11_21 
REMARK    4  A    between atoms: N7_10  and  C27_37 
REMARK       I    between atoms: N7_10  and  C28_38 
REMARK    5  A    between atoms: C7_17  and  C12_22 
REMARK    6  A    between atoms: C9_19  and  C10_20 
REMARK    7  A    between atoms: C13_23  and  C16_26 
REMARK    8  A    between atoms: C21_31  and  C28_38 
REMARK viewdock state: V
ATOM      1  N2  UNK A   1       8.097   7.241  19.872  1.00  0.00    -0.244 N 
ATOM      2  N3  UNK A   1       6.775   7.346  20.105  1.00  0.00    -0.169 NA
ATOM      3  N4  UNK A   1       9.634   6.952  18.024  1.00  0.00    -0.222 NA
ATOM      4  N5  UNK A   1       8.461   6.793  15.891  1.00  0.00    -0.224 NA
ATOM      5  C6  UNK A   1       8.409   7.082  18.554  1.00  0.00     0.164 A 
ATOM      6  C8  UNK A   1       7.203   7.081  17.875  1.00  0.00     0.088 A 
ATOM      7  C9  UNK A   1       6.237   7.247  18.885  1.00  0.00     0.105 A 
ATOM      8  C11 UNK A   1       7.255   6.930  16.493  1.00  0.00     0.139 A 
ATOM      9  C14 UNK A   1       9.560   6.813  16.682  1.00  0.00     0.237 A 
ATOM     10  C10 UNK A   1       4.805   7.311  18.726  1.00  0.00    -0.004 A 
ATOM     11  C15 UNK A   1       4.175   8.547  18.575  1.00  0.00     0.031 A 
ATOM     12  C21 UNK A   1       2.789   8.609  18.423  1.00  0.00     0.033 A 
ATOM     13  C26 UNK A   1       2.035   7.436  18.421  1.00  0.00     0.017 A 
ATOM     14  C24 UNK A   1       2.665   6.200  18.572  1.00  0.00     0.002 A 
ATOM     15  C17 UNK A   1       4.050   6.139  18.725  1.00  0.00     0.014 A 
ATOM     16  C28 UNK A   1       2.132   9.897  18.266  1.00  0.00     0.256 C 
ATOM     17  O2  UNK A   1       1.433  10.334  19.195  1.00  0.00    -0.267 OA
ATOM     18  N7  UNK A   1       2.329  10.539  17.036  1.00  0.00    -0.323 N 
ATOM     19  H30 UNK A   1       2.960  10.109  16.365  1.00  0.00     0.169 HD
ATOM     20  C27 UNK A   1       1.802  11.777  16.593  1.00  0.00     0.035 A 
ATOM     21  C23 UNK A   1       2.271  12.354  15.412  1.00  0.00     0.037 A 
ATOM     22  C16 UNK A   1       1.751  13.573  14.977  1.00  0.00    -0.048 A 
ATOM     23  C25 UNK A   1       0.761  14.214  15.721  1.00  0.00     0.008 A 
ATOM     24  C29 UNK A   1       0.292  13.638  16.901  1.00  0.00     0.003 A 
ATOM     25  C30 UNK A   1       0.812  12.419  17.337  1.00  0.00     0.029 A 
ATOM     26  C13 UNK A   1       2.253  14.189  13.716  1.00  0.00    -0.024 C 
ATOM     27  C18 UNK A   1       3.309  15.300  14.009  1.00  0.00     0.019 C 
ATOM     28  C19 UNK A   1       2.934  13.125  12.798  1.00  0.00     0.019 C 
ATOM     29  C20 UNK A   1       1.167  14.874  12.822  1.00  0.00     0.019 C 
ATOM     30  C1  UNK A   1       9.074   7.304  21.041  1.00  0.00     0.130 C 
ATOM     31  C2  UNK A   1      10.470   6.809  20.632  1.00  0.00     0.030 C 
ATOM     32  C4  UNK A   1      10.558   5.287  20.632  1.00  0.00     0.022 C 
ATOM     33  C5  UNK A   1      10.150   4.725  21.985  1.00  0.00     0.126 C 
ATOM     34  N1  UNK A   1       8.817   5.176  22.394  1.00  0.00    -0.347 N 
ATOM     35  C3  UNK A   1       8.591   6.631  22.346  1.00  0.00     0.153 C 
ATOM     36  C7  UNK A   1       7.939   4.238  22.940  1.00  0.00     0.243 C 
ATOM     37  O1  UNK A   1       8.201   3.046  23.107  1.00  0.00    -0.268 OA
ATOM     38  C12 UNK A   1       6.600   4.706  23.352  1.00  0.00     0.080 C 
ATOM     39  C22 UNK A   1       5.528   4.052  22.893  1.00  0.00     0.047 C 
ATOM     40  S1  UNK A   1       3.922   4.528  23.319  1.00  0.00    -0.154 SA
ATOM     41  H33 UNK A   1       4.149   4.823  24.607  1.00  0.00     0.106 HD
ATOM     42  N6  UNK A   1       6.084   6.917  15.714  1.00  0.00    -0.383 N 
ATOM     43  H23 UNK A   1       5.241   7.379  16.024  1.00  0.00     0.157 HD
ATOM     44  H24 UNK A   1       6.096   6.433  14.826  1.00  0.00     0.157 HD
ENDMDL
