MODEL 1
REMARK VINA RESULT:    -8.752      0.000      0.000
REMARK INTER + INTRA:         -13.746
REMARK INTER:                 -12.589
REMARK INTRA:                  -1.158
REMARK UNBOUND:                -1.158
REMARK  Name = 
REMARK  10 active torsions:
REMARK  status: ('A' for Active; 'I' for Inactive)
REMARK    1  A    between atoms: C_1  and  C_2
REMARK    2  A    between atoms: C_2  and  C_3
REMARK    3  A    between atoms: C_2  and  C_4
REMARK    4  A    between atoms: C_2  and  O_35
REMARK    5  A    between atoms: C_4  and  N_5
REMARK    6  A    between atoms: C_9  and  C_12
REMARK    7  A    between atoms: C_12  and  N_13
REMARK    8  A    between atoms: N_13  and  C_14
REMARK    9  A    between atoms: C_23  and  C_25
REMARK   10  A    between atoms: C_28  and  C_30
REMARK                            x       y       z     vdW  Elec       q    Type
REMARK                         _______ _______ _______ _____ _____    ______ ____
ROOT
ATOM      1  N   UNL     1      10.061   6.603  17.990  0.00  0.00    -0.309 N 
ATOM      2  C   UNL     1       9.813   5.441  18.661  0.00  0.00    +0.203 A 
ATOM      3  N   UNL     1       8.602   5.165  19.372  0.00  0.00    -0.251 N 
ATOM      4  H   UNL     1       8.193   4.210  19.262  0.00  0.00    +0.158 HD
ATOM      5  C   UNL     1       8.131   5.994  20.442  0.00  0.00    +0.257 C 
ATOM      6  O   UNL     1       8.887   6.877  20.934  0.00  0.00    -0.269 OA
ATOM      7  N   UNL     1      10.807   4.523  18.554  0.00  0.00    -0.214 NA
ATOM      8  C   UNL     1      11.720   5.157  17.799  0.00  0.00    +0.091 A 
ATOM      9  C   UNL     1      12.958   4.673  17.389  0.00  0.00    +0.034 A 
ATOM     10  C   UNL     1      13.766   5.506  16.585  0.00  0.00    -0.031 A 
ATOM     11  C   UNL     1      13.310   6.803  16.237  0.00  0.00    +0.007 A 
ATOM     12  C   UNL     1      12.052   7.261  16.669  0.00  0.00    +0.028 A 
ATOM     13  C   UNL     1      11.281   6.402  17.456  0.00  0.00    +0.070 A 
ENDROOT
BRANCH   5  14
ATOM     14  C   UNL     1       6.771   5.830  20.983  0.00  0.00    +0.075 A 
ATOM     15  S   UNL     1       6.296   4.602  22.035  0.00  0.00    -0.084 S 
ATOM     16  C   UNL     1       4.703   5.119  22.206  0.00  0.00    +0.023 A 
ATOM     17  C   UNL     1       4.526   6.273  21.450  0.00  0.00    +0.017 A 
ATOM     18  C   UNL     1       5.685   6.676  20.774  0.00  0.00    +0.021 A 
BRANCH  16  19
ATOM     19  C   UNL     1       3.683   4.468  23.041  0.00  0.00    +0.026 A 
ATOM     20  C   UNL     1       2.313   4.472  22.857  0.00  0.00    +0.143 A 
ATOM     21  N   UNL     1       1.732   3.773  23.851  0.00  0.00    -0.182 NA
ATOM     22  N   UNL     1       2.691   3.335  24.654  0.00  0.00    -0.284 N 
ATOM     23  H   UNL     1       2.523   2.767  25.513  0.00  0.00    +0.188 HD
ATOM     24  C   UNL     1       3.888   3.736  24.194  0.00  0.00    +0.114 A 
ENDBRANCH  16  19
ENDBRANCH   5  14
BRANCH   1  25
ATOM     25  C   UNL     1       9.173   7.757  17.776  0.00  0.00    +0.159 C 
BRANCH  25  27
ATOM     26  C   UNL     1       8.827   8.045  15.305  0.00  0.00    +0.043 C 
ATOM     27  C   UNL     1       8.183   7.527  16.607  0.00  0.00    +0.078 C 
ATOM     28  C   UNL     1       6.860   8.279  16.862  0.00  0.00    +0.043 C 
BRANCH  27  29
ATOM     29  O   UNL     1       7.934   6.146  16.486  0.00  0.00    -0.387 OA
ATOM     30  H   UNL     1       7.133   6.026  15.913  0.00  0.00    +0.210 HD
ENDBRANCH  27  29
ENDBRANCH  25  27
ENDBRANCH   1  25
BRANCH  10  31
ATOM     31  C   UNL     1      15.132   5.041  16.164  0.00  0.00    +0.116 C 
BRANCH  31  32
ATOM     32  N   UNL     1      14.992   3.901  15.248  0.00  0.00    -0.309 NA
ATOM     33  H   UNL     1      15.921   3.429  15.157  0.00  0.00    +0.123 HD
BRANCH  32  34
ATOM     34  C   UNL     1      14.469   4.290  13.923  0.00  0.00    +0.054 C 
ATOM     35  C   UNL     1      15.309   5.399  13.239  0.00  0.00    +0.019 C 
ATOM     36  C   UNL     1      16.671   4.895  12.735  0.00  0.00    +0.002 C 
ATOM     37  C   UNL     1      16.509   3.666  11.833  0.00  0.00    +0.000 C 
ATOM     38  C   UNL     1      15.741   2.552  12.551  0.00  0.00    +0.002 C 
ATOM     39  C   UNL     1      14.364   3.047  13.019  0.00  0.00    +0.019 C 
ENDBRANCH  32  34
ENDBRANCH  31  32
ENDBRANCH  10  31
TORSDOF 8
ENDMDL
MODEL 2
REMARK VINA RESULT:    -8.734      6.264      9.714
REMARK INTER + INTRA:         -13.721
REMARK INTER:                 -12.833
REMARK INTRA:                  -0.888
REMARK UNBOUND:                -1.158
REMARK  Name = 
REMARK  10 active torsions:
REMARK  status: ('A' for Active; 'I' for Inactive)
REMARK    1  A    between atoms: C_1  and  C_2
REMARK    2  A    between atoms: C_2  and  C_3
REMARK    3  A    between atoms: C_2  and  C_4
REMARK    4  A    between atoms: C_2  and  O_35
REMARK    5  A    between atoms: C_4  and  N_5
REMARK    6  A    between atoms: C_9  and  C_12
REMARK    7  A    between atoms: C_12  and  N_13
REMARK    8  A    between atoms: N_13  and  C_14
REMARK    9  A    between atoms: C_23  and  C_25
REMARK   10  A    between atoms: C_28  and  C_30
REMARK                            x       y       z     vdW  Elec       q    Type
REMARK                         _______ _______ _______ _____ _____    ______ ____
ROOT
ATOM      1  N   UNL     1       4.237   8.189  20.049  0.00  0.00    -0.309 N 
ATOM      2  C   UNL     1       3.109   7.774  20.695  0.00  0.00    +0.203 A 
ATOM      3  N   UNL     1       3.104   6.878  21.811  0.00  0.00    -0.251 N 
ATOM      4  H   UNL     1       2.465   7.110  22.605  0.00  0.00    +0.158 HD
ATOM      5  C   UNL     1       3.662   5.559  21.742  0.00  0.00    +0.257 C 
ATOM      6  O   UNL     1       3.985   5.070  20.624  0.00  0.00    -0.269 OA
ATOM      7  N   UNL     1       1.968   8.335  20.221  0.00  0.00    -0.214 NA
ATOM      8  C   UNL     1       2.411   9.116  19.220  0.00  0.00    +0.091 A 
ATOM      9  C   UNL     1       1.651   9.917  18.376  0.00  0.00    +0.034 A 
ATOM     10  C   UNL     1       2.323  10.670  17.388  0.00  0.00    -0.031 A 
ATOM     11  C   UNL     1       3.733  10.578  17.272  0.00  0.00    +0.007 A 
ATOM     12  C   UNL     1       4.472   9.757  18.144  0.00  0.00    +0.028 A 
ATOM     13  C   UNL     1       3.769   9.035  19.112  0.00  0.00    +0.070 A 
ENDROOT
BRANCH   5  14
ATOM     14  C   UNL     1       3.865   4.760  22.963  0.00  0.00    +0.075 A 
ATOM     15  S   UNL     1       5.341   4.115  23.456  0.00  0.00    -0.084 S 
ATOM     16  C   UNL     1       4.769   3.426  24.882  0.00  0.00    +0.023 A 
ATOM     17  C   UNL     1       3.411   3.707  24.997  0.00  0.00    +0.017 A 
ATOM     18  C   UNL     1       2.907   4.461  23.929  0.00  0.00    +0.021 A 
BRANCH  16  19
ATOM     19  C   UNL     1       5.582   2.678  25.851  0.00  0.00    +0.026 A 
ATOM     20  C   UNL     1       6.952   2.494  25.839  0.00  0.00    +0.143 A 
ATOM     21  N   UNL     1       7.304   1.734  26.894  0.00  0.00    -0.182 NA
ATOM     22  N   UNL     1       6.201   1.433  27.563  0.00  0.00    -0.284 N 
ATOM     23  H   UNL     1       6.181   0.847  28.426  0.00  0.00    +0.188 HD
ATOM     24  C   UNL     1       5.137   1.989  26.961  0.00  0.00    +0.114 A 
ENDBRANCH  16  19
ENDBRANCH   5  14
BRANCH   1  25
ATOM     25  C   UNL     1       5.645   7.899  20.365  0.00  0.00    +0.159 C 
BRANCH  25  27
ATOM     26  C   UNL     1       7.133   5.899  20.053  0.00  0.00    +0.043 C 
ATOM     27  C   UNL     1       6.304   6.971  19.314  0.00  0.00    +0.078 C 
ATOM     28  C   UNL     1       7.225   7.780  18.377  0.00  0.00    +0.043 C 
BRANCH  27  29
ATOM     29  O   UNL     1       5.292   6.340  18.565  0.00  0.00    -0.387 OA
ATOM     30  H   UNL     1       5.388   6.620  17.618  0.00  0.00    +0.210 HD
ENDBRANCH  27  29
ENDBRANCH  25  27
ENDBRANCH   1  25
BRANCH  10  31
ATOM     31  C   UNL     1       1.534  11.509  16.422  0.00  0.00    +0.116 C 
BRANCH  31  32
ATOM     32  N   UNL     1       2.399  12.568  15.885  0.00  0.00    -0.309 NA
ATOM     33  H   UNL     1       2.212  13.452  16.411  0.00  0.00    +0.123 HD
BRANCH  32  34
ATOM     34  C   UNL     1       2.219  12.773  14.433  0.00  0.00    +0.054 C 
ATOM     35  C   UNL     1       1.272  13.954  14.098  0.00  0.00    +0.019 C 
ATOM     36  C   UNL     1       1.902  15.326  14.379  0.00  0.00    +0.002 C 
ATOM     37  C   UNL     1       3.258  15.468  13.679  0.00  0.00    +0.000 C 
ATOM     38  C   UNL     1       4.207  14.335  14.079  0.00  0.00    +0.002 C 
ATOM     39  C   UNL     1       3.591  12.964  13.760  0.00  0.00    +0.019 C 
ENDBRANCH  32  34
ENDBRANCH  31  32
ENDBRANCH  10  31
TORSDOF 8
ENDMDL
MODEL 3
REMARK VINA RESULT:    -8.541      4.033     11.291
REMARK INTER + INTRA:         -13.443
REMARK INTER:                 -12.268
REMARK INTRA:                  -1.175
REMARK UNBOUND:                -1.158
REMARK  Name = 
REMARK  10 active torsions:
REMARK  status: ('A' for Active; 'I' for Inactive)
REMARK    1  A    between atoms: C_1  and  C_2
REMARK    2  A    between atoms: C_2  and  C_3
REMARK    3  A    between atoms: C_2  and  C_4
REMARK    4  A    between atoms: C_2  and  O_35
REMARK    5  A    between atoms: C_4  and  N_5
REMARK    6  A    between atoms: C_9  and  C_12
REMARK    7  A    between atoms: C_12  and  N_13
REMARK    8  A    between atoms: N_13  and  C_14
REMARK    9  A    between atoms: C_23  and  C_25
REMARK   10  A    between atoms: C_28  and  C_30
REMARK                            x       y       z     vdW  Elec       q    Type
REMARK                         _______ _______ _______ _____ _____    ______ ____
ROOT
ATOM      1  N   UNL     1       8.873   7.575  19.032  0.00  0.00    -0.309 N 
ATOM      2  C   UNL     1       8.306   8.439  18.142  0.00  0.00    +0.203 A 
ATOM      3  N   UNL     1       9.007   9.050  17.054  0.00  0.00    -0.251 N 
ATOM      4  H   UNL     1       8.513   9.094  16.134  0.00  0.00    +0.158 HD
ATOM      5  C   UNL     1      10.171   9.864  17.247  0.00  0.00    +0.257 C 
ATOM      6  O   UNL     1      10.487  10.245  18.409  0.00  0.00    -0.269 OA
ATOM      7  N   UNL     1       6.979   8.639  18.341  0.00  0.00    -0.214 NA
ATOM      8  C   UNL     1       6.719   7.878  19.418  0.00  0.00    +0.091 A 
ATOM      9  C   UNL     1       5.498   7.720  20.065  0.00  0.00    +0.034 A 
ATOM     10  C   UNL     1       5.443   6.858  21.182  0.00  0.00    -0.031 A 
ATOM     11  C   UNL     1       6.620   6.200  21.621  0.00  0.00    +0.007 A 
ATOM     12  C   UNL     1       7.838   6.382  20.942  0.00  0.00    +0.028 A 
ATOM     13  C   UNL     1       7.848   7.236  19.837  0.00  0.00    +0.070 A 
ENDROOT
BRANCH   5  14
ATOM     14  C   UNL     1      11.009  10.269  16.105  0.00  0.00    +0.075 A 
ATOM     15  S   UNL     1      11.076   9.461  14.628  0.00  0.00    -0.084 S 
ATOM     16  C   UNL     1      12.159  10.520  13.894  0.00  0.00    +0.023 A 
ATOM     17  C   UNL     1      12.472  11.532  14.796  0.00  0.00    +0.017 A 
ATOM     18  C   UNL     1      11.821  11.398  16.029  0.00  0.00    +0.021 A 
BRANCH  16  19
ATOM     19  C   UNL     1      12.664  10.401  12.518  0.00  0.00    +0.026 A 
ATOM     20  C   UNL     1      12.708   9.266  11.730  0.00  0.00    +0.143 A 
ATOM     21  N   UNL     1      13.258   9.577  10.540  0.00  0.00    -0.182 NA
ATOM     22  N   UNL     1      13.563  10.866  10.558  0.00  0.00    -0.284 N 
ATOM     23  H   UNL     1      14.009  11.374   9.763  0.00  0.00    +0.188 HD
ATOM     24  C   UNL     1      13.216  11.400  11.741  0.00  0.00    +0.114 A 
ENDBRANCH  16  19
ENDBRANCH   5  14
BRANCH   1  25
ATOM     25  C   UNL     1      10.239   7.027  19.049  0.00  0.00    +0.159 C 
BRANCH  25  27
ATOM     26  C   UNL     1      10.804   4.648  18.471  0.00  0.00    +0.043 C 
ATOM     27  C   UNL     1      10.491   6.040  17.882  0.00  0.00    +0.078 C 
ATOM     28  C   UNL     1      11.679   6.514  17.019  0.00  0.00    +0.043 C 
BRANCH  27  29
ATOM     29  O   UNL     1       9.327   5.960  17.093  0.00  0.00    -0.387 OA
ATOM     30  H   UNL     1       8.549   6.189  17.666  0.00  0.00    +0.210 HD
ENDBRANCH  27  29
ENDBRANCH  25  27
ENDBRANCH   1  25
BRANCH  10  31
ATOM     31  C   UNL     1       4.155   6.700  21.941  0.00  0.00    +0.116 C 
BRANCH  31  32
ATOM     32  N   UNL     1       3.123   6.175  21.036  0.00  0.00    -0.309 NA
ATOM     33  H   UNL     1       3.464   6.263  20.052  0.00  0.00    +0.123 HD
BRANCH  32  34
ATOM     34  C   UNL     1       1.819   6.849  21.203  0.00  0.00    +0.054 C 
ATOM     35  C   UNL     1       1.792   8.278  20.603  0.00  0.00    +0.019 C 
ATOM     36  C   UNL     1       1.783   8.284  19.067  0.00  0.00    +0.002 C 
ATOM     37  C   UNL     1       0.650   7.414  18.514  0.00  0.00    +0.000 C 
ATOM     38  C   UNL     1       0.735   5.985  19.058  0.00  0.00    +0.002 C 
ATOM     39  C   UNL     1       0.702   5.979  20.594  0.00  0.00    +0.019 C 
ENDBRANCH  32  34
ENDBRANCH  31  32
ENDBRANCH  10  31
TORSDOF 8
ENDMDL
MODEL 4
REMARK VINA RESULT:    -8.471      2.585     10.934
REMARK INTER + INTRA:         -13.342
REMARK INTER:                 -12.110
REMARK INTRA:                  -1.232
REMARK UNBOUND:                -1.158
REMARK  Name = 
REMARK  10 active torsions:
REMARK  status: ('A' for Active; 'I' for Inactive)
REMARK    1  A    between atoms: C_1  and  C_2
REMARK    2  A    between atoms: C_2  and  C_3
REMARK    3  A    between atoms: C_2  and  C_4
REMARK    4  A    between atoms: C_2  and  O_35
REMARK    5  A    between atoms: C_4  and  N_5
REMARK    6  A    between atoms: C_9  and  C_12
REMARK    7  A    between atoms: C_12  and  N_13
REMARK    8  A    between atoms: N_13  and  C_14
REMARK    9  A    between atoms: C_23  and  C_25
REMARK   10  A    between atoms: C_28  and  C_30
REMARK                            x       y       z     vdW  Elec       q    Type
REMARK                         _______ _______ _______ _____ _____    ______ ____
ROOT
ATOM      1  N   UNL     1       8.164   5.521  20.890  0.00  0.00    -0.309 N 
ATOM      2  C   UNL     1       7.960   5.697  19.553  0.00  0.00    +0.203 A 
ATOM      3  N   UNL     1       9.007   5.752  18.579  0.00  0.00    -0.251 N 
ATOM      4  H   UNL     1       8.853   5.235  17.684  0.00  0.00    +0.158 HD
ATOM      5  C   UNL     1      10.066   6.717  18.640  0.00  0.00    +0.257 C 
ATOM      6  O   UNL     1       9.985   7.689  19.442  0.00  0.00    -0.269 OA
ATOM      7  N   UNL     1       6.651   5.763  19.202  0.00  0.00    -0.214 NA
ATOM      8  C   UNL     1       6.017   5.643  20.381  0.00  0.00    +0.091 A 
ATOM      9  C   UNL     1       4.645   5.659  20.607  0.00  0.00    +0.034 A 
ATOM     10  C   UNL     1       4.187   5.507  21.934  0.00  0.00    -0.031 A 
ATOM     11  C   UNL     1       5.124   5.363  22.989  0.00  0.00    +0.007 A 
ATOM     12  C   UNL     1       6.505   5.352  22.724  0.00  0.00    +0.028 A 
ATOM     13  C   UNL     1       6.916   5.496  21.397  0.00  0.00    +0.070 A 
ENDROOT
BRANCH   5  14
ATOM     14  C   UNL     1      11.252   6.593  17.777  0.00  0.00    +0.075 A 
ATOM     15  S   UNL     1      12.290   5.266  17.754  0.00  0.00    -0.084 S 
ATOM     16  C   UNL     1      13.299   5.848  16.538  0.00  0.00    +0.023 A 
ATOM     17  C   UNL     1      12.824   7.088  16.123  0.00  0.00    +0.017 A 
ATOM     18  C   UNL     1      11.674   7.500  16.808  0.00  0.00    +0.021 A 
BRANCH  16  19
ATOM     19  C   UNL     1      14.468   5.143  15.993  0.00  0.00    +0.026 A 
ATOM     20  C   UNL     1      14.479   4.123  15.060  0.00  0.00    +0.143 A 
ATOM     21  N   UNL     1      15.752   3.739  14.841  0.00  0.00    -0.182 NA
ATOM     22  N   UNL     1      16.537   4.481  15.609  0.00  0.00    -0.284 N 
ATOM     23  H   UNL     1      17.576   4.391  15.645  0.00  0.00    +0.188 HD
ATOM     24  C   UNL     1      15.794   5.344  16.322  0.00  0.00    +0.114 A 
ENDBRANCH  16  19
ENDBRANCH   5  14
BRANCH   1  25
ATOM     25  C   UNL     1       9.424   5.281  21.612  0.00  0.00    +0.159 C 
BRANCH  25  27
ATOM     26  C   UNL     1      11.348   6.724  22.335  0.00  0.00    +0.043 C 
ATOM     27  C   UNL     1       9.833   6.484  22.497  0.00  0.00    +0.078 C 
ATOM     28  C   UNL     1       9.511   6.201  23.979  0.00  0.00    +0.043 C 
BRANCH  27  29
ATOM     29  O   UNL     1       9.132   7.627  22.064  0.00  0.00    -0.387 OA
ATOM     30  H   UNL     1       8.702   8.044  22.855  0.00  0.00    +0.210 HD
ENDBRANCH  27  29
ENDBRANCH  25  27
ENDBRANCH   1  25
BRANCH  10  31
ATOM     31  C   UNL     1       2.714   5.570  22.228  0.00  0.00    +0.116 C 
BRANCH  31  32
ATOM     32  N   UNL     1       1.965   5.418  20.974  0.00  0.00    -0.309 NA
ATOM     33  H   UNL     1       2.633   5.498  20.173  0.00  0.00    +0.123 HD
BRANCH  32  34
ATOM     34  C   UNL     1       0.866   6.397  20.841  0.00  0.00    +0.054 C 
ATOM     35  C   UNL     1       1.298   7.846  21.181  0.00  0.00    +0.019 C 
ATOM     36  C   UNL     1       2.202   8.470  20.107  0.00  0.00    +0.002 C 
ATOM     37  C   UNL     1       1.560   8.379  18.719  0.00  0.00    +0.000 C 
ATOM     38  C   UNL     1       1.207   6.930  18.367  0.00  0.00    +0.002 C 
ATOM     39  C   UNL     1       0.271   6.322  19.422  0.00  0.00    +0.019 C 
ENDBRANCH  32  34
ENDBRANCH  31  32
ENDBRANCH  10  31
TORSDOF 8
ENDMDL
MODEL 5
REMARK VINA RESULT:    -8.189      4.585     10.511
REMARK INTER + INTRA:         -12.936
REMARK INTER:                 -11.870
REMARK INTRA:                  -1.067
REMARK UNBOUND:                -1.158
REMARK  Name = 
REMARK  10 active torsions:
REMARK  status: ('A' for Active; 'I' for Inactive)
REMARK    1  A    between atoms: C_1  and  C_2
REMARK    2  A    between atoms: C_2  and  C_3
REMARK    3  A    between atoms: C_2  and  C_4
REMARK    4  A    between atoms: C_2  and  O_35
REMARK    5  A    between atoms: C_4  and  N_5
REMARK    6  A    between atoms: C_9  and  C_12
REMARK    7  A    between atoms: C_12  and  N_13
REMARK    8  A    between atoms: N_13  and  C_14
REMARK    9  A    between atoms: C_23  and  C_25
REMARK   10  A    between atoms: C_28  and  C_30
REMARK                            x       y       z     vdW  Elec       q    Type
REMARK                         _______ _______ _______ _____ _____    ______ ____
ROOT
ATOM      1  N   UNL     1       4.656   7.622  18.985  0.00  0.00    -0.309 N 
ATOM      2  C   UNL     1       5.754   8.330  18.590  0.00  0.00    +0.203 A 
ATOM      3  N   UNL     1       7.102   7.871  18.731  0.00  0.00    -0.251 N 
ATOM      4  H   UNL     1       7.746   8.028  17.923  0.00  0.00    +0.158 HD
ATOM      5  C   UNL     1       7.668   7.523  20.002  0.00  0.00    +0.257 C 
ATOM      6  O   UNL     1       7.055   7.818  21.065  0.00  0.00    -0.269 OA
ATOM      7  N   UNL     1       5.458   9.509  17.987  0.00  0.00    -0.214 NA
ATOM      8  C   UNL     1       4.115   9.540  18.031  0.00  0.00    +0.091 A 
ATOM      9  C   UNL     1       3.278  10.545  17.559  0.00  0.00    +0.034 A 
ATOM     10  C   UNL     1       1.884  10.372  17.699  0.00  0.00    -0.031 A 
ATOM     11  C   UNL     1       1.380   9.204  18.326  0.00  0.00    +0.007 A 
ATOM     12  C   UNL     1       2.256   8.207  18.793  0.00  0.00    +0.028 A 
ATOM     13  C   UNL     1       3.627   8.414  18.627  0.00  0.00    +0.070 A 
ENDROOT
BRANCH   5  14
ATOM     14  C   UNL     1       8.961   6.824  20.087  0.00  0.00    +0.075 A 
ATOM     15  S   UNL     1       9.755   6.109  18.784  0.00  0.00    -0.084 S 
ATOM     16  C   UNL     1      11.105   5.601  19.653  0.00  0.00    +0.023 A 
ATOM     17  C   UNL     1      10.956   6.000  20.978  0.00  0.00    +0.017 A 
ATOM     18  C   UNL     1       9.762   6.693  21.218  0.00  0.00    +0.021 A 
BRANCH  16  19
ATOM     19  C   UNL     1      12.257   4.880  19.091  0.00  0.00    +0.026 A 
ATOM     20  C   UNL     1      12.383   4.353  17.820  0.00  0.00    +0.143 A 
ATOM     21  N   UNL     1      13.586   3.756  17.708  0.00  0.00    -0.182 NA
ATOM     22  N   UNL     1      14.214   3.890  18.867  0.00  0.00    -0.284 N 
ATOM     23  H   UNL     1      15.168   3.515  19.063  0.00  0.00    +0.188 HD
ATOM     24  C   UNL     1      13.439   4.567  19.730  0.00  0.00    +0.114 A 
ENDBRANCH  16  19
ENDBRANCH   5  14
BRANCH   1  25
ATOM     25  C   UNL     1       4.583   6.264  19.548  0.00  0.00    +0.159 C 
BRANCH  25  27
ATOM     26  C   UNL     1       4.970   5.199  21.790  0.00  0.00    +0.043 C 
ATOM     27  C   UNL     1       4.152   6.268  21.036  0.00  0.00    +0.078 C 
ATOM     28  C   UNL     1       2.648   5.952  21.165  0.00  0.00    +0.043 C 
BRANCH  27  29
ATOM     29  O   UNL     1       4.426   7.535  21.587  0.00  0.00    -0.387 OA
ATOM     30  H   UNL     1       3.717   8.162  21.287  0.00  0.00    +0.210 HD
ENDBRANCH  27  29
ENDBRANCH  25  27
ENDBRANCH   1  25
BRANCH  10  31
ATOM     31  C   UNL     1       0.947  11.458  17.249  0.00  0.00    +0.116 C 
BRANCH  31  32
ATOM     32  N   UNL     1       1.730  12.584  16.723  0.00  0.00    -0.309 NA
ATOM     33  H   UNL     1       1.576  13.415  17.338  0.00  0.00    +0.123 HD
BRANCH  32  34
ATOM     34  C   UNL     1       1.403  12.903  15.318  0.00  0.00    +0.054 C 
ATOM     35  C   UNL     1       1.711  14.374  14.940  0.00  0.00    +0.019 C 
ATOM     36  C   UNL     1       3.216  14.662  14.827  0.00  0.00    +0.002 C 
ATOM     37  C   UNL     1       3.899  13.676  13.873  0.00  0.00    +0.000 C 
ATOM     38  C   UNL     1       3.647  12.227  14.303  0.00  0.00    +0.002 C 
ATOM     39  C   UNL     1       2.141  11.931  14.378  0.00  0.00    +0.019 C 
ENDBRANCH  32  34
ENDBRANCH  31  32
ENDBRANCH  10  31
TORSDOF 8
ENDMDL
MODEL 6
REMARK VINA RESULT:    -7.984      5.020     12.144
REMARK INTER + INTRA:         -12.642
REMARK INTER:                 -11.636
REMARK INTRA:                  -1.006
REMARK UNBOUND:                -1.158
REMARK  Name = 
REMARK  10 active torsions:
REMARK  status: ('A' for Active; 'I' for Inactive)
REMARK    1  A    between atoms: C_1  and  C_2
REMARK    2  A    between atoms: C_2  and  C_3
REMARK    3  A    between atoms: C_2  and  C_4
REMARK    4  A    between atoms: C_2  and  O_35
REMARK    5  A    between atoms: C_4  and  N_5
REMARK    6  A    between atoms: C_9  and  C_12
REMARK    7  A    between atoms: C_12  and  N_13
REMARK    8  A    between atoms: N_13  and  C_14
REMARK    9  A    between atoms: C_23  and  C_25
REMARK   10  A    between atoms: C_28  and  C_30
REMARK                            x       y       z     vdW  Elec       q    Type
REMARK                         _______ _______ _______ _____ _____    ______ ____
ROOT
ATOM      1  N   UNL     1      10.249   8.136  15.969  0.00  0.00    -0.309 N 
ATOM      2  C   UNL     1       9.817   8.422  14.707  0.00  0.00    +0.203 A 
ATOM      3  N   UNL     1      10.659   8.911  13.658  0.00  0.00    -0.251 N 
ATOM      4  H   UNL     1      10.527   8.496  12.708  0.00  0.00    +0.158 HD
ATOM      5  C   UNL     1      11.411  10.126  13.777  0.00  0.00    +0.257 C 
ATOM      6  O   UNL     1      11.182  10.916  14.735  0.00  0.00    -0.269 OA
ATOM      7  N   UNL     1       8.504   8.148  14.502  0.00  0.00    -0.214 NA
ATOM      8  C   UNL     1       8.102   7.692  15.700  0.00  0.00    +0.091 A 
ATOM      9  C   UNL     1       6.825   7.275  16.059  0.00  0.00    +0.034 A 
ATOM     10  C   UNL     1       6.619   6.820  17.380  0.00  0.00    -0.031 A 
ATOM     11  C   UNL     1       7.699   6.817  18.299  0.00  0.00    +0.007 A 
ATOM     12  C   UNL     1       8.979   7.246  17.902  0.00  0.00    +0.028 A 
ATOM     13  C   UNL     1       9.141   7.680  16.584  0.00  0.00    +0.070 A 
ENDROOT
BRANCH   5  14
ATOM     14  C   UNL     1      12.451  10.471  12.793  0.00  0.00    +0.075 A 
ATOM     15  S   UNL     1      12.923   9.488  11.509  0.00  0.00    -0.084 S 
ATOM     16  C   UNL     1      14.053  10.559  10.868  0.00  0.00    +0.023 A 
ATOM     17  C   UNL     1      14.063  11.712  11.648  0.00  0.00    +0.017 A 
ATOM     18  C   UNL     1      13.161  11.667  12.718  0.00  0.00    +0.021 A 
BRANCH  16  19
ATOM     19  C   UNL     1      14.868  10.319   9.668  0.00  0.00    +0.026 A 
ATOM     20  C   UNL     1      16.020  10.980   9.285  0.00  0.00    +0.143 A 
ATOM     21  N   UNL     1      16.451  10.471   8.115  0.00  0.00    -0.182 NA
ATOM     22  N   UNL     1      15.606   9.517   7.751  0.00  0.00    -0.284 N 
ATOM     23  H   UNL     1      15.697   8.956   6.876  0.00  0.00    +0.188 HD
ATOM     24  C   UNL     1      14.634   9.396   8.670  0.00  0.00    +0.114 A 
ENDBRANCH  16  19
ENDBRANCH   5  14
BRANCH   1  25
ATOM     25  C   UNL     1      11.616   8.182  16.512  0.00  0.00    +0.159 C 
BRANCH  25  27
ATOM     26  C   UNL     1      13.150  10.033  17.242  0.00  0.00    +0.043 C 
ATOM     27  C   UNL     1      11.806   9.332  17.531  0.00  0.00    +0.078 C 
ATOM     28  C   UNL     1      11.810   8.784  18.974  0.00  0.00    +0.043 C 
BRANCH  27  29
ATOM     29  O   UNL     1      10.756  10.258  17.373  0.00  0.00    -0.387 OA
ATOM     30  H   UNL     1      11.067  11.139  17.709  0.00  0.00    +0.210 HD
ENDBRANCH  27  29
ENDBRANCH  25  27
ENDBRANCH   1  25
BRANCH  10  31
ATOM     31  C   UNL     1       5.243   6.409  17.823  0.00  0.00    +0.116 C 
BRANCH  31  32
ATOM     32  N   UNL     1       4.393   7.603  17.927  0.00  0.00    -0.309 NA
ATOM     33  H   UNL     1       4.556   8.205  17.088  0.00  0.00    +0.123 HD
BRANCH  32  34
ATOM     34  C   UNL     1       4.623   8.364  19.172  0.00  0.00    +0.054 C 
ATOM     35  C   UNL     1       4.029   9.795  19.129  0.00  0.00    +0.019 C 
ATOM     36  C   UNL     1       2.494   9.810  19.211  0.00  0.00    +0.002 C 
ATOM     37  C   UNL     1       1.996   9.024  20.428  0.00  0.00    +0.000 C 
ATOM     38  C   UNL     1       2.533   7.589  20.416  0.00  0.00    +0.002 C 
ATOM     39  C   UNL     1       4.068   7.577  20.374  0.00  0.00    +0.019 C 
ENDBRANCH  32  34
ENDBRANCH  31  32
ENDBRANCH  10  31
TORSDOF 8
ENDMDL
MODEL 7
REMARK VINA RESULT:    -7.828      5.155      9.783
REMARK INTER + INTRA:         -12.417
REMARK INTER:                 -11.301
REMARK INTRA:                  -1.116
REMARK UNBOUND:                -1.158
REMARK  Name = 
REMARK  10 active torsions:
REMARK  status: ('A' for Active; 'I' for Inactive)
REMARK    1  A    between atoms: C_1  and  C_2
REMARK    2  A    between atoms: C_2  and  C_3
REMARK    3  A    between atoms: C_2  and  C_4
REMARK    4  A    between atoms: C_2  and  O_35
REMARK    5  A    between atoms: C_4  and  N_5
REMARK    6  A    between atoms: C_9  and  C_12
REMARK    7  A    between atoms: C_12  and  N_13
REMARK    8  A    between atoms: N_13  and  C_14
REMARK    9  A    between atoms: C_23  and  C_25
REMARK   10  A    between atoms: C_28  and  C_30
REMARK                            x       y       z     vdW  Elec       q    Type
REMARK                         _______ _______ _______ _____ _____    ______ ____
ROOT
ATOM      1  N   UNL     1       8.105   5.910  21.080  0.00  0.00    -0.309 N 
ATOM      2  C   UNL     1       7.571   5.962  22.334  0.00  0.00    +0.203 A 
ATOM      3  N   UNL     1       8.161   5.352  23.486  0.00  0.00    -0.251 N 
ATOM      4  H   UNL     1       8.163   5.907  24.371  0.00  0.00    +0.158 HD
ATOM      5  C   UNL     1       8.434   3.946  23.558  0.00  0.00    +0.257 C 
ATOM      6  O   UNL     1       7.961   3.167  22.684  0.00  0.00    -0.269 OA
ATOM      7  N   UNL     1       6.436   6.702  22.417  0.00  0.00    -0.214 NA
ATOM      8  C   UNL     1       6.250   7.109  21.149  0.00  0.00    +0.091 A 
ATOM      9  C   UNL     1       5.213   7.895  20.660  0.00  0.00    +0.034 A 
ATOM     10  C   UNL     1       5.212   8.216  19.285  0.00  0.00    -0.031 A 
ATOM     11  C   UNL     1       6.243   7.720  18.447  0.00  0.00    +0.007 A 
ATOM     12  C   UNL     1       7.278   6.927  18.976  0.00  0.00    +0.028 A 
ATOM     13  C   UNL     1       7.245   6.640  20.342  0.00  0.00    +0.070 A 
ENDROOT
BRANCH   5  14
ATOM     14  C   UNL     1       9.261   3.392  24.644  0.00  0.00    +0.075 A 
ATOM     15  S   UNL     1      10.131   1.952  24.550  0.00  0.00    -0.084 S 
ATOM     16  C   UNL     1      10.805   2.049  26.090  0.00  0.00    +0.023 A 
ATOM     17  C   UNL     1      10.366   3.224  26.693  0.00  0.00    +0.017 A 
ATOM     18  C   UNL     1       9.511   3.979  25.881  0.00  0.00    +0.021 A 
BRANCH  16  19
ATOM     19  C   UNL     1      11.726   1.066  26.679  0.00  0.00    +0.026 A 
ATOM     20  C   UNL     1      12.263  -0.055  26.074  0.00  0.00    +0.143 A 
ATOM     21  N   UNL     1      13.046  -0.701  26.959  0.00  0.00    -0.182 NA
ATOM     22  N   UNL     1      13.014  -0.024  28.099  0.00  0.00    -0.284 N 
ATOM     23  H   UNL     1      13.529  -0.305  28.962  0.00  0.00    +0.188 HD
ATOM     24  C   UNL     1      12.224   1.054  27.966  0.00  0.00    +0.114 A 
ENDBRANCH  16  19
ENDBRANCH   5  14
BRANCH   1  25
ATOM     25  C   UNL     1       9.379   5.319  20.639  0.00  0.00    +0.159 C 
BRANCH  25  27
ATOM     26  C   UNL     1      11.002   6.937  19.609  0.00  0.00    +0.043 C 
ATOM     27  C   UNL     1      10.586   6.246  20.925  0.00  0.00    +0.078 C 
ATOM     28  C   UNL     1      11.775   5.432  21.478  0.00  0.00    +0.043 C 
BRANCH  27  29
ATOM     29  O   UNL     1      10.198   7.224  21.861  0.00  0.00    -0.387 OA
ATOM     30  H   UNL     1       9.532   7.819  21.429  0.00  0.00    +0.210 HD
ENDBRANCH  27  29
ENDBRANCH  25  27
ENDBRANCH   1  25
BRANCH  10  31
ATOM     31  C   UNL     1       4.082   9.020  18.705  0.00  0.00    +0.116 C 
BRANCH  31  32
ATOM     32  N   UNL     1       3.043   8.106  18.211  0.00  0.00    -0.309 NA
ATOM     33  H   UNL     1       3.079   8.091  17.167  0.00  0.00    +0.123 HD
BRANCH  32  34
ATOM     34  C   UNL     1       1.691   8.466  18.685  0.00  0.00    +0.054 C 
ATOM     35  C   UNL     1       0.602   7.453  18.246  0.00  0.00    +0.019 C 
ATOM     36  C   UNL     1       0.688   6.116  18.999  0.00  0.00    +0.002 C 
ATOM     37  C   UNL     1       0.685   6.333  20.516  0.00  0.00    +0.000 C 
ATOM     38  C   UNL     1       1.813   7.277  20.942  0.00  0.00    +0.002 C 
ATOM     39  C   UNL     1       1.702   8.627  20.217  0.00  0.00    +0.019 C 
ENDBRANCH  32  34
ENDBRANCH  31  32
ENDBRANCH  10  31
TORSDOF 8
ENDMDL
MODEL 8
REMARK VINA RESULT:    -7.627      2.726      3.472
REMARK INTER + INTRA:         -12.128
REMARK INTER:                 -11.314
REMARK INTRA:                  -0.814
REMARK UNBOUND:                -1.158
REMARK  Name = 
REMARK  10 active torsions:
REMARK  status: ('A' for Active; 'I' for Inactive)
REMARK    1  A    between atoms: C_1  and  C_2
REMARK    2  A    between atoms: C_2  and  C_3
REMARK    3  A    between atoms: C_2  and  C_4
REMARK    4  A    between atoms: C_2  and  O_35
REMARK    5  A    between atoms: C_4  and  N_5
REMARK    6  A    between atoms: C_9  and  C_12
REMARK    7  A    between atoms: C_12  and  N_13
REMARK    8  A    between atoms: N_13  and  C_14
REMARK    9  A    between atoms: C_23  and  C_25
REMARK   10  A    between atoms: C_28  and  C_30
REMARK                            x       y       z     vdW  Elec       q    Type
REMARK                         _______ _______ _______ _____ _____    ______ ____
ROOT
ATOM      1  N   UNL     1       9.148   7.552  17.342  0.00  0.00    -0.309 N 
ATOM      2  C   UNL     1       9.675   6.483  18.006  0.00  0.00    +0.203 A 
ATOM      3  N   UNL     1       8.956   5.690  18.955  0.00  0.00    -0.251 N 
ATOM      4  H   UNL     1       9.080   4.653  18.901  0.00  0.00    +0.158 HD
ATOM      5  C   UNL     1       8.363   6.249  20.135  0.00  0.00    +0.257 C 
ATOM      6  O   UNL     1       8.645   7.429  20.481  0.00  0.00    -0.269 OA
ATOM      7  N   UNL     1      10.951   6.190  17.647  0.00  0.00    -0.214 NA
ATOM      8  C   UNL     1      11.230   7.136  16.734  0.00  0.00    +0.091 A 
ATOM      9  C   UNL     1      12.424   7.314  16.042  0.00  0.00    +0.034 A 
ATOM     10  C   UNL     1      12.503   8.375  15.113  0.00  0.00    -0.031 A 
ATOM     11  C   UNL     1      11.387   9.229  14.925  0.00  0.00    +0.007 A 
ATOM     12  C   UNL     1      10.195   9.020  15.642  0.00  0.00    +0.028 A 
ATOM     13  C   UNL     1      10.156   7.955  16.545  0.00  0.00    +0.070 A 
ENDROOT
BRANCH   5  14
ATOM     14  C   UNL     1       7.427   5.462  20.955  0.00  0.00    +0.075 A 
ATOM     15  S   UNL     1       5.840   5.912  21.301  0.00  0.00    -0.084 S 
ATOM     16  C   UNL     1       5.455   4.537  22.195  0.00  0.00    +0.023 A 
ATOM     17  C   UNL     1       6.565   3.699  22.221  0.00  0.00    +0.017 A 
ATOM     18  C   UNL     1       7.664   4.211  21.519  0.00  0.00    +0.021 A 
BRANCH  16  19
ATOM     19  C   UNL     1       4.151   4.265  22.817  0.00  0.00    +0.026 A 
ATOM     20  C   UNL     1       2.955   4.918  22.588  0.00  0.00    +0.143 A 
ATOM     21  N   UNL     1       2.000   4.376  23.369  0.00  0.00    -0.182 NA
ATOM     22  N   UNL     1       2.560   3.410  24.082  0.00  0.00    -0.284 N 
ATOM     23  H   UNL     1       2.050   2.824  24.778  0.00  0.00    +0.188 HD
ATOM     24  C   UNL     1       3.864   3.312  23.773  0.00  0.00    +0.114 A 
ENDBRANCH  16  19
ENDBRANCH   5  14
BRANCH   1  25
ATOM     25  C   UNL     1       7.773   8.076  17.375  0.00  0.00    +0.159 C 
BRANCH  25  27
ATOM     26  C   UNL     1       5.957   6.357  17.138  0.00  0.00    +0.043 C 
ATOM     27  C   UNL     1       6.845   7.355  16.366  0.00  0.00    +0.078 C 
ATOM     28  C   UNL     1       7.677   6.597  15.311  0.00  0.00    +0.043 C 
BRANCH  27  29
ATOM     29  O   UNL     1       6.027   8.312  15.734  0.00  0.00    -0.387 OA
ATOM     30  H   UNL     1       6.018   8.117  14.761  0.00  0.00    +0.210 HD
ENDBRANCH  27  29
ENDBRANCH  25  27
ENDBRANCH   1  25
BRANCH  10  31
ATOM     31  C   UNL     1      13.791   8.633  14.383  0.00  0.00    +0.116 C 
BRANCH  31  32
ATOM     32  N   UNL     1      13.635   8.242  12.975  0.00  0.00    -0.309 NA
ATOM     33  H   UNL     1      14.162   7.353  12.814  0.00  0.00    +0.123 HD
BRANCH  32  34
ATOM     34  C   UNL     1      14.078   9.292  12.035  0.00  0.00    +0.054 C 
ATOM     35  C   UNL     1      14.545   8.729  10.669  0.00  0.00    +0.019 C 
ATOM     36  C   UNL     1      13.383   8.215   9.804  0.00  0.00    +0.002 C 
ATOM     37  C   UNL     1      12.300   9.285   9.637  0.00  0.00    +0.000 C 
ATOM     38  C   UNL     1      11.796   9.778  10.997  0.00  0.00    +0.002 C 
ATOM     39  C   UNL     1      12.953  10.328  11.845  0.00  0.00    +0.019 C 
ENDBRANCH  32  34
ENDBRANCH  31  32
ENDBRANCH  10  31
TORSDOF 8
ENDMDL
MODEL 9
REMARK VINA RESULT:    -7.501      3.384     11.362
REMARK INTER + INTRA:         -11.947
REMARK INTER:                 -10.938
REMARK INTRA:                  -1.009
REMARK UNBOUND:                -1.158
REMARK  Name = 
REMARK  10 active torsions:
REMARK  status: ('A' for Active; 'I' for Inactive)
REMARK    1  A    between atoms: C_1  and  C_2
REMARK    2  A    between atoms: C_2  and  C_3
REMARK    3  A    between atoms: C_2  and  C_4
REMARK    4  A    between atoms: C_2  and  O_35
REMARK    5  A    between atoms: C_4  and  N_5
REMARK    6  A    between atoms: C_9  and  C_12
REMARK    7  A    between atoms: C_12  and  N_13
REMARK    8  A    between atoms: N_13  and  C_14
REMARK    9  A    between atoms: C_23  and  C_25
REMARK   10  A    between atoms: C_28  and  C_30
REMARK                            x       y       z     vdW  Elec       q    Type
REMARK                         _______ _______ _______ _____ _____    ______ ____
ROOT
ATOM      1  N   UNL     1       9.072   6.453  18.569  0.00  0.00    -0.309 N 
ATOM      2  C   UNL     1       9.477   6.962  17.369  0.00  0.00    +0.203 A 
ATOM      3  N   UNL     1      10.715   6.634  16.731  0.00  0.00    -0.251 N 
ATOM      4  H   UNL     1      10.690   6.460  15.701  0.00  0.00    +0.158 HD
ATOM      5  C   UNL     1      11.986   6.852  17.359  0.00  0.00    +0.257 C 
ATOM      6  O   UNL     1      12.057   7.543  18.413  0.00  0.00    -0.269 OA
ATOM      7  N   UNL     1       8.566   7.782  16.786  0.00  0.00    -0.214 NA
ATOM      8  C   UNL     1       7.561   7.797  17.678  0.00  0.00    +0.091 A 
ATOM      9  C   UNL     1       6.364   8.499  17.589  0.00  0.00    +0.034 A 
ATOM     10  C   UNL     1       5.434   8.366  18.643  0.00  0.00    -0.031 A 
ATOM     11  C   UNL     1       5.747   7.547  19.758  0.00  0.00    +0.007 A 
ATOM     12  C   UNL     1       6.967   6.850  19.815  0.00  0.00    +0.028 A 
ATOM     13  C   UNL     1       7.856   7.003  18.748  0.00  0.00    +0.070 A 
ENDROOT
BRANCH   5  14
ATOM     14  C   UNL     1      13.218   6.280  16.789  0.00  0.00    +0.075 A 
ATOM     15  S   UNL     1      13.847   6.668  15.274  0.00  0.00    -0.084 S 
ATOM     16  C   UNL     1      15.210   5.686  15.389  0.00  0.00    +0.023 A 
ATOM     17  C   UNL     1      15.197   5.052  16.627  0.00  0.00    +0.017 A 
ATOM     18  C   UNL     1      14.089   5.391  17.414  0.00  0.00    +0.021 A 
BRANCH  16  19
ATOM     19  C   UNL     1      16.250   5.551  14.359  0.00  0.00    +0.026 A 
ATOM     20  C   UNL     1      17.056   6.546  13.838  0.00  0.00    +0.143 A 
ATOM     21  N   UNL     1      17.866   6.013  12.904  0.00  0.00    -0.182 NA
ATOM     22  N   UNL     1      17.592   4.719  12.819  0.00  0.00    -0.284 N 
ATOM     23  H   UNL     1      18.069   4.060  12.166  0.00  0.00    +0.188 HD
ATOM     24  C   UNL     1      16.617   4.402  13.687  0.00  0.00    +0.114 A 
ENDBRANCH  16  19
ENDBRANCH   5  14
BRANCH   1  25
ATOM     25  C   UNL     1       9.729   5.445  19.416  0.00  0.00    +0.159 C 
BRANCH  25  27
ATOM     26  C   UNL     1      11.694   5.481  20.981  0.00  0.00    +0.043 C 
ATOM     27  C   UNL     1      10.284   6.053  20.729  0.00  0.00    +0.078 C 
ATOM     28  C   UNL     1       9.365   5.703  21.918  0.00  0.00    +0.043 C 
BRANCH  27  29
ATOM     29  O   UNL     1      10.369   7.451  20.584  0.00  0.00    -0.387 OA
ATOM     30  H   UNL     1      11.328   7.705  20.589  0.00  0.00    +0.210 HD
ENDBRANCH  27  29
ENDBRANCH  25  27
ENDBRANCH   1  25
BRANCH  10  31
ATOM     31  C   UNL     1       4.151   9.148  18.610  0.00  0.00    +0.116 C 
BRANCH  31  32
ATOM     32  N   UNL     1       3.068   8.279  18.130  0.00  0.00    -0.309 NA
ATOM     33  H   UNL     1       3.037   8.328  17.086  0.00  0.00    +0.123 HD
BRANCH  32  34
ATOM     34  C   UNL     1       1.755   8.626  18.711  0.00  0.00    +0.054 C 
ATOM     35  C   UNL     1       0.655   7.580  18.397  0.00  0.00    +0.019 C 
ATOM     36  C   UNL     1       0.836   6.267  19.176  0.00  0.00    +0.002 C 
ATOM     37  C   UNL     1       0.960   6.527  20.681  0.00  0.00    +0.000 C 
ATOM     38  C   UNL     1       2.100   7.506  20.980  0.00  0.00    +0.002 C 
ATOM     39  C   UNL     1       1.896   8.832  20.232  0.00  0.00    +0.019 C 
ENDBRANCH  32  34
ENDBRANCH  31  32
ENDBRANCH  10  31
TORSDOF 8
ENDMDL
