MODEL 1
REMARK VINA RESULT:    -9.669      0.000      0.000
REMARK INTER + INTRA:         -15.990
REMARK INTER:                 -14.756
REMARK INTRA:                  -1.234
REMARK UNBOUND:                -1.234
REMARK  Name = 
REMARK  13 active torsions:
REMARK  status: ('A' for Active; 'I' for Inactive)
REMARK    1  A    between atoms: C_1  and  C_2
REMARK    2  A    between atoms: C_2  and  C_3
REMARK    3  A    between atoms: C_2  and  N_7
REMARK    4  A    between atoms: C_3  and  C_4
REMARK    5  A    between atoms: C_3  and  C_5
REMARK    6  A    between atoms: C_3  and  C_6
REMARK    7  A    between atoms: N_7  and  C_8
REMARK    8  A    between atoms: C_8  and  C_9
REMARK    9  A    between atoms: N_15  and  C_29
REMARK   10  A    between atoms: C_19  and  C_21
REMARK   11  A    between atoms: C_24  and  C_26
REMARK   12  A    between atoms: C_29  and  C_30
REMARK   13  A    between atoms: C_35  and  C_37
REMARK                            x       y       z     vdW  Elec       q    Type
REMARK                         _______ _______ _______ _____ _____    ______ ____
ROOT
ATOM      1  C   UNL     1       2.110  10.568  17.778  0.00  0.00    -0.031 A 
ATOM      2  C   UNL     1       1.443  10.100  18.940  0.00  0.00    +0.007 A 
ATOM      3  C   UNL     1       2.110   9.287  19.872  0.00  0.00    +0.028 A 
ATOM      4  C   UNL     1       3.442   8.962  19.616  0.00  0.00    +0.070 A 
ATOM      5  N   UNL     1       4.283   8.197  20.334  0.00  0.00    -0.310 N 
ATOM      6  C   UNL     1       5.438   8.227  19.613  0.00  0.00    +0.203 A 
ATOM      7  N   UNL     1       6.626   7.508  19.967  0.00  0.00    -0.251 N 
ATOM      8  H   UNL     1       7.150   7.026  19.203  0.00  0.00    +0.158 HD
ATOM      9  C   UNL     1       7.260   7.663  21.243  0.00  0.00    +0.257 C 
ATOM     10  O   UNL     1       7.002   8.673  21.954  0.00  0.00    -0.269 OA
ATOM     11  N   UNL     1       5.352   8.949  18.467  0.00  0.00    -0.214 NA
ATOM     12  C   UNL     1       4.089   9.409  18.499  0.00  0.00    +0.091 A 
ATOM     13  C   UNL     1       3.458  10.214  17.554  0.00  0.00    +0.034 A 
ENDROOT
BRANCH   9  14
ATOM     14  C   UNL     1       8.204   6.650  21.742  0.00  0.00    +0.075 A 
ATOM     15  S   UNL     1       8.202   6.017  23.301  0.00  0.00    -0.083 S 
ATOM     16  C   UNL     1       9.470   4.940  23.054  0.00  0.00    +0.055 A 
ATOM     17  C   UNL     1       9.899   5.047  21.737  0.00  0.00    +0.017 A 
ATOM     18  C   UNL     1       9.193   6.006  21.001  0.00  0.00    +0.021 A 
BRANCH  16  19
ATOM     19  C   UNL     1       9.996   3.979  24.069  0.00  0.00    +0.378 C 
ATOM     20  F   UNL     1       9.663   4.417  25.337  0.00  0.00    -0.203 F 
ATOM     21  F   UNL     1       9.448   2.727  23.856  0.00  0.00    -0.203 F 
ENDBRANCH  16  19
ENDBRANCH   9  14
BRANCH   1  22
ATOM     22  C   UNL     1       1.365  11.406  16.770  0.00  0.00    +0.116 C 
BRANCH  22  23
ATOM     23  N   UNL     1       2.280  12.188  15.923  0.00  0.00    -0.309 NA
ATOM     24  H   UNL     1       3.056  12.588  16.500  0.00  0.00    +0.123 HD
BRANCH  23  26
ATOM     25  C   UNL     1       0.930  14.277  16.003  0.00  0.00    +0.024 C 
ATOM     26  C   UNL     1       1.603  13.218  15.099  0.00  0.00    +0.056 C 
BRANCH  26  27
ATOM     27  C   UNL     1       2.616  13.818  14.062  0.00  0.00    -0.023 C 
ATOM     28  C   UNL     1       3.069  12.762  13.029  0.00  0.00    +0.012 C 
ATOM     29  C   UNL     1       3.864  14.393  14.769  0.00  0.00    +0.012 C 
ATOM     30  C   UNL     1       1.929  14.980  13.305  0.00  0.00    +0.012 C 
ENDBRANCH  26  27
ENDBRANCH  23  26
ENDBRANCH  22  23
ENDBRANCH   1  22
BRANCH   5  31
ATOM     31  C   UNL     1       3.961   7.397  21.524  0.00  0.00    +0.147 C 
BRANCH  31  32
ATOM     32  C   UNL     1       3.775   5.902  21.184  0.00  0.00    +0.096 C 
ATOM     33  N   UNL     1       2.513   5.423  21.743  0.00  0.00    -0.293 N 
ATOM     34  C   UNL     1       1.196   5.760  21.260  0.00  0.00    +0.239 C 
ATOM     35  O   UNL     1       0.188   5.423  21.940  0.00  0.00    -0.271 OA
ATOM     36  C   UNL     1       2.710   4.545  22.888  0.00  0.00    +0.108 C 
ATOM     37  C   UNL     1       4.211   4.513  23.133  0.00  0.00    +0.021 C 
ATOM     38  C   UNL     1       4.839   5.011  21.837  0.00  0.00    +0.026 C 
BRANCH  34  39
ATOM     39  C   UNL     1       1.000   6.479  19.982  0.00  0.00    +0.060 C 
ATOM     40  C   UNL     1       0.296   5.963  18.977  0.00  0.00    +0.013 C 
ENDBRANCH  34  39
ENDBRANCH  31  32
ENDBRANCH   5  31
TORSDOF 9
ENDMDL
MODEL 2
REMARK VINA RESULT:    -8.752      1.955      4.412
REMARK INTER + INTRA:         -14.590
REMARK INTER:                 -13.077
REMARK INTRA:                  -1.513
REMARK UNBOUND:                -1.234
REMARK  Name = 
REMARK  13 active torsions:
REMARK  status: ('A' for Active; 'I' for Inactive)
REMARK    1  A    between atoms: C_1  and  C_2
REMARK    2  A    between atoms: C_2  and  C_3
REMARK    3  A    between atoms: C_2  and  N_7
REMARK    4  A    between atoms: C_3  and  C_4
REMARK    5  A    between atoms: C_3  and  C_5
REMARK    6  A    between atoms: C_3  and  C_6
REMARK    7  A    between atoms: N_7  and  C_8
REMARK    8  A    between atoms: C_8  and  C_9
REMARK    9  A    between atoms: N_15  and  C_29
REMARK   10  A    between atoms: C_19  and  C_21
REMARK   11  A    between atoms: C_24  and  C_26
REMARK   12  A    between atoms: C_29  and  C_30
REMARK   13  A    between atoms: C_35  and  C_37
REMARK                            x       y       z     vdW  Elec       q    Type
REMARK                         _______ _______ _______ _____ _____    ______ ____
ROOT
ATOM      1  C   UNL     1       2.040  10.713  17.888  0.00  0.00    -0.031 A 
ATOM      2  C   UNL     1       3.278  10.200  17.419  0.00  0.00    +0.007 A 
ATOM      3  C   UNL     1       3.937   9.171  18.114  0.00  0.00    +0.028 A 
ATOM      4  C   UNL     1       3.334   8.676  19.270  0.00  0.00    +0.070 A 
ATOM      5  N   UNL     1       3.765   7.718  20.109  0.00  0.00    -0.310 N 
ATOM      6  C   UNL     1       2.785   7.655  21.054  0.00  0.00    +0.203 A 
ATOM      7  N   UNL     1       2.825   6.794  22.198  0.00  0.00    -0.251 N 
ATOM      8  H   UNL     1       2.519   7.188  23.115  0.00  0.00    +0.158 HD
ATOM      9  C   UNL     1       2.991   5.375  22.080  0.00  0.00    +0.257 C 
ATOM     10  O   UNL     1       2.761   4.806  20.978  0.00  0.00    -0.269 OA
ATOM     11  N   UNL     1       1.778   8.545  20.860  0.00  0.00    -0.214 NA
ATOM     12  C   UNL     1       2.143   9.166  19.726  0.00  0.00    +0.091 A 
ATOM     13  C   UNL     1       1.464  10.187  19.065  0.00  0.00    +0.034 A 
ENDROOT
BRANCH   9  14
ATOM     14  C   UNL     1       3.435   4.572  23.230  0.00  0.00    +0.075 A 
ATOM     15  S   UNL     1       5.011   4.036  23.479  0.00  0.00    -0.083 S 
ATOM     16  C   UNL     1       4.713   3.294  24.958  0.00  0.00    +0.055 A 
ATOM     17  C   UNL     1       3.375   3.475  25.289  0.00  0.00    +0.017 A 
ATOM     18  C   UNL     1       2.657   4.188  24.321  0.00  0.00    +0.021 A 
BRANCH  16  19
ATOM     19  C   UNL     1       5.738   2.615  25.805  0.00  0.00    +0.378 C 
ATOM     20  F   UNL     1       7.001   3.021  25.418  0.00  0.00    -0.203 F 
ATOM     21  F   UNL     1       5.537   2.940  27.134  0.00  0.00    -0.203 F 
ENDBRANCH  16  19
ENDBRANCH   9  14
BRANCH   1  22
ATOM     22  C   UNL     1       1.368  11.844  17.151  0.00  0.00    +0.116 C 
BRANCH  22  23
ATOM     23  N   UNL     1       2.151  12.281  15.984  0.00  0.00    -0.309 NA
ATOM     24  H   UNL     1       3.109  12.579  16.281  0.00  0.00    +0.123 HD
BRANCH  23  26
ATOM     25  C   UNL     1       0.809  14.376  16.058  0.00  0.00    +0.024 C 
ATOM     26  C   UNL     1       1.474  13.308  15.158  0.00  0.00    +0.056 C 
BRANCH  26  27
ATOM     27  C   UNL     1       2.483  13.898  14.111  0.00  0.00    -0.023 C 
ATOM     28  C   UNL     1       2.923  12.834  13.079  0.00  0.00    +0.012 C 
ATOM     29  C   UNL     1       3.739  14.468  14.807  0.00  0.00    +0.012 C 
ATOM     30  C   UNL     1       1.798  15.061  13.353  0.00  0.00    +0.012 C 
ENDBRANCH  26  27
ENDBRANCH  23  26
ENDBRANCH  22  23
ENDBRANCH   1  22
BRANCH   5  31
ATOM     31  C   UNL     1       5.064   7.032  20.084  0.00  0.00    +0.147 C 
BRANCH  31  32
ATOM     32  C   UNL     1       6.190   7.902  20.684  0.00  0.00    +0.096 C 
ATOM     33  N   UNL     1       7.481   7.471  20.152  0.00  0.00    -0.293 N 
ATOM     34  C   UNL     1       7.951   7.685  18.804  0.00  0.00    +0.239 C 
ATOM     35  O   UNL     1       9.007   7.108  18.424  0.00  0.00    -0.271 OA
ATOM     36  C   UNL     1       8.284   6.768  21.142  0.00  0.00    +0.108 C 
ATOM     37  C   UNL     1       7.416   6.672  22.388  0.00  0.00    +0.021 C 
ATOM     38  C   UNL     1       6.330   7.724  22.201  0.00  0.00    +0.026 C 
BRANCH  34  39
ATOM     39  C   UNL     1       7.231   8.571  17.864  0.00  0.00    +0.060 C 
ATOM     40  C   UNL     1       7.146   8.308  16.562  0.00  0.00    +0.013 C 
ENDBRANCH  34  39
ENDBRANCH  31  32
ENDBRANCH   5  31
TORSDOF 9
ENDMDL
MODEL 3
REMARK VINA RESULT:    -8.684      1.610      2.284
REMARK INTER + INTRA:         -14.487
REMARK INTER:                 -13.627
REMARK INTRA:                  -0.859
REMARK UNBOUND:                -1.234
REMARK  Name = 
REMARK  13 active torsions:
REMARK  status: ('A' for Active; 'I' for Inactive)
REMARK    1  A    between atoms: C_1  and  C_2
REMARK    2  A    between atoms: C_2  and  C_3
REMARK    3  A    between atoms: C_2  and  N_7
REMARK    4  A    between atoms: C_3  and  C_4
REMARK    5  A    between atoms: C_3  and  C_5
REMARK    6  A    between atoms: C_3  and  C_6
REMARK    7  A    between atoms: N_7  and  C_8
REMARK    8  A    between atoms: C_8  and  C_9
REMARK    9  A    between atoms: N_15  and  C_29
REMARK   10  A    between atoms: C_19  and  C_21
REMARK   11  A    between atoms: C_24  and  C_26
REMARK   12  A    between atoms: C_29  and  C_30
REMARK   13  A    between atoms: C_35  and  C_37
REMARK                            x       y       z     vdW  Elec       q    Type
REMARK                         _______ _______ _______ _____ _____    ______ ____
ROOT
ATOM      1  C   UNL     1       2.384   9.926  18.299  0.00  0.00    -0.031 A 
ATOM      2  C   UNL     1       1.751   9.223  19.357  0.00  0.00    +0.007 A 
ATOM      3  C   UNL     1       2.506   8.456  20.261  0.00  0.00    +0.028 A 
ATOM      4  C   UNL     1       3.889   8.413  20.082  0.00  0.00    +0.070 A 
ATOM      5  N   UNL     1       4.817   7.748  20.792  0.00  0.00    -0.310 N 
ATOM      6  C   UNL     1       5.986   8.067  20.169  0.00  0.00    +0.203 A 
ATOM      7  N   UNL     1       7.267   7.550  20.549  0.00  0.00    -0.251 N 
ATOM      8  H   UNL     1       7.919   7.256  19.789  0.00  0.00    +0.158 HD
ATOM      9  C   UNL     1       7.781   7.686  21.880  0.00  0.00    +0.257 C 
ATOM     10  O   UNL     1       7.291   8.551  22.657  0.00  0.00    -0.269 OA
ATOM     11  N   UNL     1       5.830   8.877  19.091  0.00  0.00    -0.214 NA
ATOM     12  C   UNL     1       4.503   9.087  19.065  0.00  0.00    +0.091 A 
ATOM     13  C   UNL     1       3.787   9.854  18.150  0.00  0.00    +0.034 A 
ENDROOT
BRANCH   9  14
ATOM     14  C   UNL     1       8.871   6.820  22.358  0.00  0.00    +0.075 A 
ATOM     15  S   UNL     1       8.994   6.197  23.916  0.00  0.00    -0.083 S 
ATOM     16  C   UNL     1      10.398   5.313  23.641  0.00  0.00    +0.055 A 
ATOM     17  C   UNL     1      10.778   5.477  22.315  0.00  0.00    +0.017 A 
ATOM     18  C   UNL     1       9.926   6.323  21.595  0.00  0.00    +0.021 A 
BRANCH  16  19
ATOM     19  C   UNL     1      11.078   4.440  24.644  0.00  0.00    +0.378 C 
ATOM     20  F   UNL     1      11.233   5.132  25.830  0.00  0.00    -0.203 F 
ATOM     21  F   UNL     1      10.318   3.306  24.868  0.00  0.00    -0.203 F 
ENDBRANCH  16  19
ENDBRANCH   9  14
BRANCH   1  22
ATOM     22  C   UNL     1       1.553  10.710  17.316  0.00  0.00    +0.116 C 
BRANCH  22  23
ATOM     23  N   UNL     1       2.387  11.544  16.435  0.00  0.00    -0.309 NA
ATOM     24  H   UNL     1       3.104  12.060  16.995  0.00  0.00    +0.123 HD
BRANCH  23  26
ATOM     25  C   UNL     1       0.992  13.604  16.364  0.00  0.00    +0.024 C 
ATOM     26  C   UNL     1       1.611  12.444  15.549  0.00  0.00    +0.056 C 
BRANCH  26  27
ATOM     27  C   UNL     1       2.510  12.917  14.353  0.00  0.00    -0.023 C 
ATOM     28  C   UNL     1       3.712  13.759  14.839  0.00  0.00    +0.012 C 
ATOM     29  C   UNL     1       1.694  13.751  13.338  0.00  0.00    +0.012 C 
ATOM     30  C   UNL     1       3.052  11.673  13.610  0.00  0.00    +0.012 C 
ENDBRANCH  26  27
ENDBRANCH  23  26
ENDBRANCH  22  23
ENDBRANCH   1  22
BRANCH   5  31
ATOM     31  C   UNL     1       4.585   6.782  21.875  0.00  0.00    +0.147 C 
BRANCH  31  32
ATOM     32  C   UNL     1       4.430   5.341  21.342  0.00  0.00    +0.096 C 
ATOM     33  N   UNL     1       4.918   4.392  22.341  0.00  0.00    -0.293 N 
ATOM     34  C   UNL     1       4.265   4.068  23.586  0.00  0.00    +0.239 C 
ATOM     35  O   UNL     1       4.880   3.368  24.437  0.00  0.00    -0.271 OA
ATOM     36  C   UNL     1       6.184   3.783  21.956  0.00  0.00    +0.108 C 
ATOM     37  C   UNL     1       6.581   4.443  20.644  0.00  0.00    +0.021 C 
ATOM     38  C   UNL     1       5.299   5.070  20.108  0.00  0.00    +0.026 C 
BRANCH  34  39
ATOM     39  C   UNL     1       2.890   4.525  23.881  0.00  0.00    +0.060 C 
ATOM     40  C   UNL     1       2.018   3.773  24.548  0.00  0.00    +0.013 C 
ENDBRANCH  34  39
ENDBRANCH  31  32
ENDBRANCH   5  31
TORSDOF 9
ENDMDL
MODEL 4
REMARK VINA RESULT:    -8.524      2.324      2.707
REMARK INTER + INTRA:         -14.242
REMARK INTER:                 -12.422
REMARK INTRA:                  -1.821
REMARK UNBOUND:                -1.234
REMARK  Name = 
REMARK  13 active torsions:
REMARK  status: ('A' for Active; 'I' for Inactive)
REMARK    1  A    between atoms: C_1  and  C_2
REMARK    2  A    between atoms: C_2  and  C_3
REMARK    3  A    between atoms: C_2  and  N_7
REMARK    4  A    between atoms: C_3  and  C_4
REMARK    5  A    between atoms: C_3  and  C_5
REMARK    6  A    between atoms: C_3  and  C_6
REMARK    7  A    between atoms: N_7  and  C_8
REMARK    8  A    between atoms: C_8  and  C_9
REMARK    9  A    between atoms: N_15  and  C_29
REMARK   10  A    between atoms: C_19  and  C_21
REMARK   11  A    between atoms: C_24  and  C_26
REMARK   12  A    between atoms: C_29  and  C_30
REMARK   13  A    between atoms: C_35  and  C_37
REMARK                            x       y       z     vdW  Elec       q    Type
REMARK                         _______ _______ _______ _____ _____    ______ ____
ROOT
ATOM      1  C   UNL     1       2.171  10.613  18.007  0.00  0.00    -0.031 A 
ATOM      2  C   UNL     1       2.050  10.096  19.323  0.00  0.00    +0.007 A 
ATOM      3  C   UNL     1       3.064   9.296  19.876  0.00  0.00    +0.028 A 
ATOM      4  C   UNL     1       4.186   9.033  19.090  0.00  0.00    +0.070 A 
ATOM      5  N   UNL     1       5.271   8.293  19.380  0.00  0.00    -0.310 N 
ATOM      6  C   UNL     1       6.031   8.385  18.252  0.00  0.00    +0.203 A 
ATOM      7  N   UNL     1       7.283   7.712  18.069  0.00  0.00    -0.251 N 
ATOM      8  H   UNL     1       7.465   7.266  17.143  0.00  0.00    +0.158 HD
ATOM      9  C   UNL     1       8.375   7.871  18.983  0.00  0.00    +0.257 C 
ATOM     10  O   UNL     1       8.398   8.856  19.770  0.00  0.00    -0.269 OA
ATOM     11  N   UNL     1       5.462   9.123  17.265  0.00  0.00    -0.214 NA
ATOM     12  C   UNL     1       4.309   9.528  17.823  0.00  0.00    +0.091 A 
ATOM     13  C   UNL     1       3.322  10.321  17.243  0.00  0.00    +0.034 A 
ENDROOT
BRANCH   9  14
ATOM     14  C   UNL     1       9.473   6.891  19.021  0.00  0.00    +0.075 A 
ATOM     15  S   UNL     1      10.738   6.905  20.130  0.00  0.00    -0.083 S 
ATOM     16  C   UNL     1      11.478   5.502  19.570  0.00  0.00    +0.055 A 
ATOM     17  C   UNL     1      10.729   4.990  18.517  0.00  0.00    +0.017 A 
ATOM     18  C   UNL     1       9.607   5.768  18.206  0.00  0.00    +0.021 A 
BRANCH  16  19
ATOM     19  C   UNL     1      12.699   4.877  20.159  0.00  0.00    +0.378 C 
ATOM     20  F   UNL     1      13.150   3.868  19.329  0.00  0.00    -0.203 F 
ATOM     21  F   UNL     1      13.690   5.831  20.302  0.00  0.00    -0.203 F 
ENDBRANCH  16  19
ENDBRANCH   9  14
BRANCH   1  22
ATOM     22  C   UNL     1       1.054  11.436  17.417  0.00  0.00    +0.116 C 
BRANCH  22  23
ATOM     23  N   UNL     1       1.214  11.619  15.966  0.00  0.00    -0.309 NA
ATOM     24  H   UNL     1       2.122  11.208  15.646  0.00  0.00    +0.123 HD
BRANCH  23  26
ATOM     25  C   UNL     1       0.992  13.978  16.726  0.00  0.00    +0.024 C 
ATOM     26  C   UNL     1       1.041  13.019  15.514  0.00  0.00    +0.056 C 
BRANCH  26  27
ATOM     27  C   UNL     1       2.149  13.380  14.463  0.00  0.00    -0.023 C 
ATOM     28  C   UNL     1       1.563  14.145  13.254  0.00  0.00    +0.012 C 
ATOM     29  C   UNL     1       2.865  12.109  13.950  0.00  0.00    +0.012 C 
ATOM     30  C   UNL     1       3.212  14.277  15.141  0.00  0.00    +0.012 C 
ENDBRANCH  26  27
ENDBRANCH  23  26
ENDBRANCH  22  23
ENDBRANCH   1  22
BRANCH   5  31
ATOM     31  C   UNL     1       5.487   7.458  20.570  0.00  0.00    +0.147 C 
BRANCH  31  32
ATOM     32  C   UNL     1       5.040   5.998  20.342  0.00  0.00    +0.096 C 
ATOM     33  N   UNL     1       4.540   5.435  21.594  0.00  0.00    -0.293 N 
ATOM     34  C   UNL     1       3.294   5.781  22.234  0.00  0.00    +0.239 C 
ATOM     35  O   UNL     1       3.064   5.355  23.400  0.00  0.00    -0.271 OA
ATOM     36  C   UNL     1       5.454   4.459  22.170  0.00  0.00    +0.108 C 
ATOM     37  C   UNL     1       6.673   4.444  21.259  0.00  0.00    +0.021 C 
ATOM     38  C   UNL     1       6.205   5.077  19.954  0.00  0.00    +0.026 C 
BRANCH  34  39
ATOM     39  C   UNL     1       2.277   6.611  21.553  0.00  0.00    +0.060 C 
ATOM     40  C   UNL     1       1.082   6.135  21.212  0.00  0.00    +0.013 C 
ENDBRANCH  34  39
ENDBRANCH  31  32
ENDBRANCH   5  31
TORSDOF 9
ENDMDL
MODEL 5
REMARK VINA RESULT:    -8.496      4.314     10.291
REMARK INTER + INTRA:         -14.199
REMARK INTER:                 -12.829
REMARK INTRA:                  -1.370
REMARK UNBOUND:                -1.234
REMARK  Name = 
REMARK  13 active torsions:
REMARK  status: ('A' for Active; 'I' for Inactive)
REMARK    1  A    between atoms: C_1  and  C_2
REMARK    2  A    between atoms: C_2  and  C_3
REMARK    3  A    between atoms: C_2  and  N_7
REMARK    4  A    between atoms: C_3  and  C_4
REMARK    5  A    between atoms: C_3  and  C_5
REMARK    6  A    between atoms: C_3  and  C_6
REMARK    7  A    between atoms: N_7  and  C_8
REMARK    8  A    between atoms: C_8  and  C_9
REMARK    9  A    between atoms: N_15  and  C_29
REMARK   10  A    between atoms: C_19  and  C_21
REMARK   11  A    between atoms: C_24  and  C_26
REMARK   12  A    between atoms: C_29  and  C_30
REMARK   13  A    between atoms: C_35  and  C_37
REMARK                            x       y       z     vdW  Elec       q    Type
REMARK                         _______ _______ _______ _____ _____    ______ ____
ROOT
ATOM      1  C   UNL     1       8.529   5.384  23.604  0.00  0.00    -0.031 A 
ATOM      2  C   UNL     1       7.480   4.446  23.420  0.00  0.00    +0.007 A 
ATOM      3  C   UNL     1       6.356   4.770  22.641  0.00  0.00    +0.028 A 
ATOM      4  C   UNL     1       6.311   6.037  22.059  0.00  0.00    +0.070 A 
ATOM      5  N   UNL     1       5.352   6.586  21.294  0.00  0.00    -0.310 N 
ATOM      6  C   UNL     1       5.837   7.829  21.016  0.00  0.00    +0.203 A 
ATOM      7  N   UNL     1       5.131   8.815  20.254  0.00  0.00    -0.251 N 
ATOM      8  H   UNL     1       5.152   9.802  20.594  0.00  0.00    +0.158 HD
ATOM      9  C   UNL     1       4.653   8.557  18.927  0.00  0.00    +0.257 C 
ATOM     10  O   UNL     1       5.129   7.595  18.264  0.00  0.00    -0.269 OA
ATOM     11  N   UNL     1       7.038   8.091  21.591  0.00  0.00    -0.214 NA
ATOM     12  C   UNL     1       7.318   6.943  22.232  0.00  0.00    +0.091 A 
ATOM     13  C   UNL     1       8.444   6.658  23.000  0.00  0.00    +0.034 A 
ENDROOT
BRANCH   9  14
ATOM     14  C   UNL     1       3.602   9.397  18.329  0.00  0.00    +0.075 A 
ATOM     15  S   UNL     1       3.841  10.479  17.062  0.00  0.00    -0.083 S 
ATOM     16  C   UNL     1       2.233  10.958  16.937  0.00  0.00    +0.055 A 
ATOM     17  C   UNL     1       1.483  10.259  17.874  0.00  0.00    +0.017 A 
ATOM     18  C   UNL     1       2.248   9.386  18.657  0.00  0.00    +0.021 A 
BRANCH  16  19
ATOM     19  C   UNL     1       1.697  11.925  15.933  0.00  0.00    +0.378 C 
ATOM     20  F   UNL     1       0.989  12.920  16.579  0.00  0.00    -0.203 F 
ATOM     21  F   UNL     1       2.742  12.489  15.224  0.00  0.00    -0.203 F 
ENDBRANCH  16  19
ENDBRANCH   9  14
BRANCH   1  22
ATOM     22  C   UNL     1       9.708   5.032  24.475  0.00  0.00    +0.116 C 
BRANCH  22  23
ATOM     23  N   UNL     1       9.287   4.557  25.803  0.00  0.00    -0.309 NA
ATOM     24  H   UNL     1       9.207   5.361  26.468  0.00  0.00    +0.123 HD
BRANCH  23  26
ATOM     25  C   UNL     1      10.712   3.858  27.720  0.00  0.00    +0.024 C 
ATOM     26  C   UNL     1      10.128   3.462  26.344  0.00  0.00    +0.056 C 
BRANCH  26  27
ATOM     27  C   UNL     1       9.310   2.123  26.361  0.00  0.00    -0.023 C 
ATOM     28  C   UNL     1       7.787   2.384  26.394  0.00  0.00    +0.012 C 
ATOM     29  C   UNL     1       9.693   1.252  27.579  0.00  0.00    +0.012 C 
ATOM     30  C   UNL     1       9.641   1.316  25.083  0.00  0.00    +0.012 C 
ENDBRANCH  26  27
ENDBRANCH  23  26
ENDBRANCH  22  23
ENDBRANCH   1  22
BRANCH   5  31
ATOM     31  C   UNL     1       4.031   6.022  20.982  0.00  0.00    +0.147 C 
BRANCH  31  32
ATOM     32  C   UNL     1       2.931   6.572  21.916  0.00  0.00    +0.096 C 
ATOM     33  N   UNL     1       2.031   5.490  22.306  0.00  0.00    -0.293 N 
ATOM     34  C   UNL     1       2.349   4.415  23.213  0.00  0.00    +0.239 C 
ATOM     35  O   UNL     1       1.544   3.449  23.326  0.00  0.00    -0.271 OA
ATOM     36  C   UNL     1       0.728   5.592  21.661  0.00  0.00    +0.108 C 
ATOM     37  C   UNL     1       0.819   6.789  20.727  0.00  0.00    +0.021 C 
ATOM     38  C   UNL     1       2.019   7.590  21.219  0.00  0.00    +0.026 C 
BRANCH  34  39
ATOM     39  C   UNL     1       3.588   4.424  24.021  0.00  0.00    +0.060 C 
ATOM     40  C   UNL     1       3.797   3.560  25.012  0.00  0.00    +0.013 C 
ENDBRANCH  34  39
ENDBRANCH  31  32
ENDBRANCH   5  31
TORSDOF 9
ENDMDL
MODEL 6
REMARK VINA RESULT:    -8.365      4.193      6.479
REMARK INTER + INTRA:         -14.000
REMARK INTER:                 -12.117
REMARK INTRA:                  -1.883
REMARK UNBOUND:                -1.234
REMARK  Name = 
REMARK  13 active torsions:
REMARK  status: ('A' for Active; 'I' for Inactive)
REMARK    1  A    between atoms: C_1  and  C_2
REMARK    2  A    between atoms: C_2  and  C_3
REMARK    3  A    between atoms: C_2  and  N_7
REMARK    4  A    between atoms: C_3  and  C_4
REMARK    5  A    between atoms: C_3  and  C_5
REMARK    6  A    between atoms: C_3  and  C_6
REMARK    7  A    between atoms: N_7  and  C_8
REMARK    8  A    between atoms: C_8  and  C_9
REMARK    9  A    between atoms: N_15  and  C_29
REMARK   10  A    between atoms: C_19  and  C_21
REMARK   11  A    between atoms: C_24  and  C_26
REMARK   12  A    between atoms: C_29  and  C_30
REMARK   13  A    between atoms: C_35  and  C_37
REMARK                            x       y       z     vdW  Elec       q    Type
REMARK                         _______ _______ _______ _____ _____    ______ ____
ROOT
ATOM      1  C   UNL     1       3.437   6.196  20.956  0.00  0.00    -0.031 A 
ATOM      2  C   UNL     1       4.187   6.819  21.987  0.00  0.00    +0.007 A 
ATOM      3  C   UNL     1       5.588   6.906  21.904  0.00  0.00    +0.028 A 
ATOM      4  C   UNL     1       6.207   6.363  20.778  0.00  0.00    +0.070 A 
ATOM      5  N   UNL     1       7.516   6.305  20.474  0.00  0.00    -0.310 N 
ATOM      6  C   UNL     1       7.536   5.669  19.269  0.00  0.00    +0.203 A 
ATOM      7  N   UNL     1       8.733   5.335  18.557  0.00  0.00    -0.251 N 
ATOM      8  H   UNL     1       8.786   4.395  18.106  0.00  0.00    +0.158 HD
ATOM      9  C   UNL     1       9.713   6.321  18.206  0.00  0.00    +0.257 C 
ATOM     10  O   UNL     1       9.401   7.543  18.203  0.00  0.00    -0.269 OA
ATOM     11  N   UNL     1       6.308   5.304  18.820  0.00  0.00    -0.214 NA
ATOM     12  C   UNL     1       5.491   5.762  19.783  0.00  0.00    +0.091 A 
ATOM     13  C   UNL     1       4.103   5.656  19.834  0.00  0.00    +0.034 A 
ENDROOT
BRANCH   9  14
ATOM     14  C   UNL     1      11.087   5.924  17.857  0.00  0.00    +0.075 A 
ATOM     15  S   UNL     1      12.196   6.903  17.053  0.00  0.00    -0.083 S 
ATOM     16  C   UNL     1      13.467   5.802  17.100  0.00  0.00    +0.055 A 
ATOM     17  C   UNL     1      13.044   4.658  17.766  0.00  0.00    +0.017 A 
ATOM     18  C   UNL     1      11.711   4.723  18.189  0.00  0.00    +0.021 A 
BRANCH  16  19
ATOM     19  C   UNL     1      14.841   6.048  16.571  0.00  0.00    +0.378 C 
ATOM     20  F   UNL     1      15.244   7.328  16.904  0.00  0.00    -0.203 F 
ATOM     21  F   UNL     1      15.723   5.132  17.116  0.00  0.00    -0.203 F 
ENDBRANCH  16  19
ENDBRANCH   9  14
BRANCH   1  22
ATOM     22  C   UNL     1       1.940   6.078  21.083  0.00  0.00    +0.116 C 
BRANCH  22  23
ATOM     23  N   UNL     1       1.250   7.284  20.598  0.00  0.00    -0.309 NA
ATOM     24  H   UNL     1       0.213   7.140  20.613  0.00  0.00    +0.123 HD
BRANCH  23  26
ATOM     25  C   UNL     1       0.669   7.508  18.189  0.00  0.00    +0.024 C 
ATOM     26  C   UNL     1       1.733   7.765  19.282  0.00  0.00    +0.056 C 
BRANCH  26  27
ATOM     27  C   UNL     1       2.180   9.265  19.395  0.00  0.00    -0.023 C 
ATOM     28  C   UNL     1       1.485  10.149  18.334  0.00  0.00    +0.012 C 
ATOM     29  C   UNL     1       3.711   9.403  19.235  0.00  0.00    +0.012 C 
ATOM     30  C   UNL     1       1.804   9.796  20.798  0.00  0.00    +0.012 C 
ENDBRANCH  26  27
ENDBRANCH  23  26
ENDBRANCH  22  23
ENDBRANCH   1  22
BRANCH   5  31
ATOM     31  C   UNL     1       8.646   6.694  21.329  0.00  0.00    +0.147 C 
BRANCH  31  32
ATOM     32  C   UNL     1       9.598   5.510  21.604  0.00  0.00    +0.096 C 
ATOM     33  N   UNL     1       9.412   5.038  22.975  0.00  0.00    -0.293 N 
ATOM     34  C   UNL     1       8.267   4.311  23.468  0.00  0.00    +0.239 C 
ATOM     35  O   UNL     1       8.151   4.119  24.709  0.00  0.00    -0.271 OA
ATOM     36  C   UNL     1      10.530   5.389  23.840  0.00  0.00    +0.108 C 
ATOM     37  C   UNL     1      11.476   6.215  22.981  0.00  0.00    +0.021 C 
ATOM     38  C   UNL     1      11.076   5.913  21.542  0.00  0.00    +0.026 C 
BRANCH  34  39
ATOM     39  C   UNL     1       7.235   3.778  22.553  0.00  0.00    +0.060 C 
ATOM     40  C   UNL     1       5.992   3.520  22.955  0.00  0.00    +0.013 C 
ENDBRANCH  34  39
ENDBRANCH  31  32
ENDBRANCH   5  31
TORSDOF 9
ENDMDL
MODEL 7
REMARK VINA RESULT:    -8.337      5.223     11.747
REMARK INTER + INTRA:         -13.957
REMARK INTER:                 -12.395
REMARK INTRA:                  -1.562
REMARK UNBOUND:                -1.234
REMARK  Name = 
REMARK  13 active torsions:
REMARK  status: ('A' for Active; 'I' for Inactive)
REMARK    1  A    between atoms: C_1  and  C_2
REMARK    2  A    between atoms: C_2  and  C_3
REMARK    3  A    between atoms: C_2  and  N_7
REMARK    4  A    between atoms: C_3  and  C_4
REMARK    5  A    between atoms: C_3  and  C_5
REMARK    6  A    between atoms: C_3  and  C_6
REMARK    7  A    between atoms: N_7  and  C_8
REMARK    8  A    between atoms: C_8  and  C_9
REMARK    9  A    between atoms: N_15  and  C_29
REMARK   10  A    between atoms: C_19  and  C_21
REMARK   11  A    between atoms: C_24  and  C_26
REMARK   12  A    between atoms: C_29  and  C_30
REMARK   13  A    between atoms: C_35  and  C_37
REMARK                            x       y       z     vdW  Elec       q    Type
REMARK                         _______ _______ _______ _____ _____    ______ ____
ROOT
ATOM      1  C   UNL     1      10.317   3.319  24.714  0.00  0.00    -0.031 A 
ATOM      2  C   UNL     1      10.765   4.333  23.829  0.00  0.00    +0.007 A 
ATOM      3  C   UNL     1       9.857   5.021  23.006  0.00  0.00    +0.028 A 
ATOM      4  C   UNL     1       8.508   4.674  23.093  0.00  0.00    +0.070 A 
ATOM      5  N   UNL     1       7.459   5.165  22.410  0.00  0.00    -0.310 N 
ATOM      6  C   UNL     1       6.401   4.459  22.899  0.00  0.00    +0.203 A 
ATOM      7  N   UNL     1       5.054   4.605  22.434  0.00  0.00    -0.251 N 
ATOM      8  H   UNL     1       4.489   3.738  22.295  0.00  0.00    +0.158 HD
ATOM      9  C   UNL     1       4.381   5.871  22.427  0.00  0.00    +0.257 C 
ATOM     10  O   UNL     1       4.816   6.817  23.140  0.00  0.00    -0.269 OA
ATOM     11  N   UNL     1       6.742   3.534  23.832  0.00  0.00    -0.214 NA
ATOM     12  C   UNL     1       8.071   3.698  23.943  0.00  0.00    +0.091 A 
ATOM     13  C   UNL     1       8.943   2.994  24.769  0.00  0.00    +0.034 A 
ENDROOT
BRANCH   9  14
ATOM     14  C   UNL     1       3.189   6.085  21.591  0.00  0.00    +0.075 A 
ATOM     15  S   UNL     1       3.216   6.635  20.000  0.00  0.00    -0.083 S 
ATOM     16  C   UNL     1       1.554   6.546  19.757  0.00  0.00    +0.055 A 
ATOM     17  C   UNL     1       0.957   6.062  20.914  0.00  0.00    +0.017 A 
ATOM     18  C   UNL     1       1.870   5.806  21.943  0.00  0.00    +0.021 A 
BRANCH  16  19
ATOM     19  C   UNL     1       0.852   6.868  18.479  0.00  0.00    +0.378 C 
ATOM     20  F   UNL     1      -0.385   6.251  18.461  0.00  0.00    -0.203 F 
ATOM     21  F   UNL     1       0.684   8.237  18.371  0.00  0.00    -0.203 F 
ENDBRANCH  16  19
ENDBRANCH   9  14
BRANCH   1  22
ATOM     22  C   UNL     1      11.311   2.565  25.559  0.00  0.00    +0.116 C 
BRANCH  22  23
ATOM     23  N   UNL     1      11.855   1.393  24.854  0.00  0.00    -0.309 NA
ATOM     24  H   UNL     1      11.933   1.590  23.829  0.00  0.00    +0.123 HD
BRANCH  23  26
ATOM     25  C   UNL     1      10.381  -0.350  23.862  0.00  0.00    +0.024 C 
ATOM     26  C   UNL     1      11.123   0.134  25.129  0.00  0.00    +0.056 C 
BRANCH  26  27
ATOM     27  C   UNL     1      12.105  -0.930  25.736  0.00  0.00    -0.023 C 
ATOM     28  C   UNL     1      11.800  -1.205  27.226  0.00  0.00    +0.012 C 
ATOM     29  C   UNL     1      13.575  -0.470  25.604  0.00  0.00    +0.012 C 
ATOM     30  C   UNL     1      11.956  -2.256  24.952  0.00  0.00    +0.012 C 
ENDBRANCH  26  27
ENDBRANCH  23  26
ENDBRANCH  22  23
ENDBRANCH   1  22
BRANCH   5  31
ATOM     31  C   UNL     1       7.493   6.118  21.293  0.00  0.00    +0.147 C 
BRANCH  31  32
ATOM     32  C   UNL     1       7.852   5.432  19.957  0.00  0.00    +0.096 C 
ATOM     33  N   UNL     1       8.405   6.418  19.031  0.00  0.00    -0.293 N 
ATOM     34  C   UNL     1       9.706   7.033  19.134  0.00  0.00    +0.239 C 
ATOM     35  O   UNL     1       9.991   7.997  18.372  0.00  0.00    -0.271 OA
ATOM     36  C   UNL     1       7.484   6.745  17.951  0.00  0.00    +0.108 C 
ATOM     37  C   UNL     1       6.209   5.968  18.243  0.00  0.00    +0.021 C 
ATOM     38  C   UNL     1       6.621   4.879  19.227  0.00  0.00    +0.026 C 
BRANCH  34  39
ATOM     39  C   UNL     1      10.715   6.554  20.104  0.00  0.00    +0.060 C 
ATOM     40  C   UNL     1      11.541   7.382  20.739  0.00  0.00    +0.013 C 
ENDBRANCH  34  39
ENDBRANCH  31  32
ENDBRANCH   5  31
TORSDOF 9
ENDMDL
MODEL 8
REMARK VINA RESULT:    -8.310      4.980      6.993
REMARK INTER + INTRA:         -13.915
REMARK INTER:                 -12.674
REMARK INTRA:                  -1.242
REMARK UNBOUND:                -1.234
REMARK  Name = 
REMARK  13 active torsions:
REMARK  status: ('A' for Active; 'I' for Inactive)
REMARK    1  A    between atoms: C_1  and  C_2
REMARK    2  A    between atoms: C_2  and  C_3
REMARK    3  A    between atoms: C_2  and  N_7
REMARK    4  A    between atoms: C_3  and  C_4
REMARK    5  A    between atoms: C_3  and  C_5
REMARK    6  A    between atoms: C_3  and  C_6
REMARK    7  A    between atoms: N_7  and  C_8
REMARK    8  A    between atoms: C_8  and  C_9
REMARK    9  A    between atoms: N_15  and  C_29
REMARK   10  A    between atoms: C_19  and  C_21
REMARK   11  A    between atoms: C_24  and  C_26
REMARK   12  A    between atoms: C_29  and  C_30
REMARK   13  A    between atoms: C_35  and  C_37
REMARK                            x       y       z     vdW  Elec       q    Type
REMARK                         _______ _______ _______ _____ _____    ______ ____
ROOT
ATOM      1  C   UNL     1      10.949   8.074  16.895  0.00  0.00    -0.031 A 
ATOM      2  C   UNL     1       9.946   9.078  16.927  0.00  0.00    +0.007 A 
ATOM      3  C   UNL     1       8.776   8.899  17.685  0.00  0.00    +0.028 A 
ATOM      4  C   UNL     1       8.639   7.708  18.399  0.00  0.00    +0.070 A 
ATOM      5  N   UNL     1       7.622   7.296  19.175  0.00  0.00    -0.310 N 
ATOM      6  C   UNL     1       8.026   6.068  19.608  0.00  0.00    +0.203 A 
ATOM      7  N   UNL     1       7.238   5.209  20.440  0.00  0.00    -0.251 N 
ATOM      8  H   UNL     1       7.219   4.191  20.210  0.00  0.00    +0.158 HD
ATOM      9  C   UNL     1       6.723   5.637  21.708  0.00  0.00    +0.257 C 
ATOM     10  O   UNL     1       7.224   6.641  22.283  0.00  0.00    -0.269 OA
ATOM     11  N   UNL     1       9.233   5.684  19.120  0.00  0.00    -0.214 NA
ATOM     12  C   UNL     1       9.601   6.739  18.371  0.00  0.00    +0.091 A 
ATOM     13  C   UNL     1      10.771   6.881  17.629  0.00  0.00    +0.034 A 
ENDROOT
BRANCH   9  14
ATOM     14  C   UNL     1       5.605   4.921  22.345  0.00  0.00    +0.075 A 
ATOM     15  S   UNL     1       3.983   5.342  22.196  0.00  0.00    -0.083 S 
ATOM     16  C   UNL     1       3.386   4.065  23.113  0.00  0.00    +0.055 A 
ATOM     17  C   UNL     1       4.451   3.277  23.532  0.00  0.00    +0.017 A 
ATOM     18  C   UNL     1       5.695   3.756  23.105  0.00  0.00    +0.021 A 
BRANCH  16  19
ATOM     19  C   UNL     1       1.941   3.790  23.372  0.00  0.00    +0.378 C 
ATOM     20  F   UNL     1       1.690   3.864  24.729  0.00  0.00    -0.203 F 
ATOM     21  F   UNL     1       1.162   4.721  22.709  0.00  0.00    -0.203 F 
ENDBRANCH  16  19
ENDBRANCH   9  14
BRANCH   1  22
ATOM     22  C   UNL     1      12.178   8.268  16.044  0.00  0.00    +0.116 C 
BRANCH  22  23
ATOM     23  N   UNL     1      12.275   9.641  15.523  0.00  0.00    -0.309 NA
ATOM     24  H   UNL     1      11.455  10.208  15.840  0.00  0.00    +0.123 HD
BRANCH  23  26
ATOM     25  C   UNL     1      11.240   9.152  13.313  0.00  0.00    +0.024 C 
ATOM     26  C   UNL     1      12.475   9.713  14.056  0.00  0.00    +0.056 C 
BRANCH  26  27
ATOM     27  C   UNL     1      12.854  11.179  13.643  0.00  0.00    -0.023 C 
ATOM     28  C   UNL     1      12.634  11.422  12.133  0.00  0.00    +0.012 C 
ATOM     29  C   UNL     1      14.328  11.493  13.990  0.00  0.00    +0.012 C 
ATOM     30  C   UNL     1      11.965  12.169  14.433  0.00  0.00    +0.012 C 
ENDBRANCH  26  27
ENDBRANCH  23  26
ENDBRANCH  22  23
ENDBRANCH   1  22
BRANCH   5  31
ATOM     31  C   UNL     1       6.322   7.955  19.364  0.00  0.00    +0.147 C 
BRANCH  31  32
ATOM     32  C   UNL     1       5.368   7.706  18.175  0.00  0.00    +0.096 C 
ATOM     33  N   UNL     1       4.080   7.228  18.671  0.00  0.00    -0.293 N 
ATOM     34  C   UNL     1       3.099   8.021  19.371  0.00  0.00    +0.239 C 
ATOM     35  O   UNL     1       2.108   7.445  19.900  0.00  0.00    -0.271 OA
ATOM     36  C   UNL     1       3.867   5.814  18.392  0.00  0.00    +0.108 C 
ATOM     37  C   UNL     1       5.147   5.324  17.731  0.00  0.00    +0.021 C 
ATOM     38  C   UNL     1       5.857   6.584  17.251  0.00  0.00    +0.026 C 
BRANCH  34  39
ATOM     39  C   UNL     1       3.221   9.491  19.472  0.00  0.00    +0.060 C 
ATOM     40  C   UNL     1       2.231  10.312  19.129  0.00  0.00    +0.013 C 
ENDBRANCH  34  39
ENDBRANCH  31  32
ENDBRANCH   5  31
TORSDOF 9
ENDMDL
MODEL 9
REMARK VINA RESULT:    -8.218      4.866      8.669
REMARK INTER + INTRA:         -13.775
REMARK INTER:                 -12.364
REMARK INTRA:                  -1.411
REMARK UNBOUND:                -1.234
REMARK  Name = 
REMARK  13 active torsions:
REMARK  status: ('A' for Active; 'I' for Inactive)
REMARK    1  A    between atoms: C_1  and  C_2
REMARK    2  A    between atoms: C_2  and  C_3
REMARK    3  A    between atoms: C_2  and  N_7
REMARK    4  A    between atoms: C_3  and  C_4
REMARK    5  A    between atoms: C_3  and  C_5
REMARK    6  A    between atoms: C_3  and  C_6
REMARK    7  A    between atoms: N_7  and  C_8
REMARK    8  A    between atoms: C_8  and  C_9
REMARK    9  A    between atoms: N_15  and  C_29
REMARK   10  A    between atoms: C_19  and  C_21
REMARK   11  A    between atoms: C_24  and  C_26
REMARK   12  A    between atoms: C_29  and  C_30
REMARK   13  A    between atoms: C_35  and  C_37
REMARK                            x       y       z     vdW  Elec       q    Type
REMARK                         _______ _______ _______ _____ _____    ______ ____
ROOT
ATOM      1  C   UNL     1      11.488   7.309  16.750  0.00  0.00    -0.031 A 
ATOM      2  C   UNL     1      10.547   8.368  16.674  0.00  0.00    +0.007 A 
ATOM      3  C   UNL     1       9.344   8.313  17.398  0.00  0.00    +0.028 A 
ATOM      4  C   UNL     1       9.112   7.187  18.189  0.00  0.00    +0.070 A 
ATOM      5  N   UNL     1       8.047   6.892  18.954  0.00  0.00    -0.310 N 
ATOM      6  C   UNL     1       8.362   5.678  19.487  0.00  0.00    +0.203 A 
ATOM      7  N   UNL     1       7.496   4.929  20.348  0.00  0.00    -0.251 N 
ATOM      8  H   UNL     1       7.424   3.899  20.190  0.00  0.00    +0.158 HD
ATOM      9  C   UNL     1       6.966   5.476  21.562  0.00  0.00    +0.257 C 
ATOM     10  O   UNL     1       7.508   6.489  22.083  0.00  0.00    -0.269 OA
ATOM     11  N   UNL     1       9.559   5.190  19.072  0.00  0.00    -0.214 NA
ATOM     12  C   UNL     1      10.014   6.164  18.266  0.00  0.00    +0.091 A 
ATOM     13  C   UNL     1      11.215   6.185  17.560  0.00  0.00    +0.034 A 
ENDROOT
BRANCH   9  14
ATOM     14  C   UNL     1       5.787   4.875  22.206  0.00  0.00    +0.075 A 
ATOM     15  S   UNL     1       4.354   5.690  22.544  0.00  0.00    -0.083 S 
ATOM     16  C   UNL     1       3.542   4.361  23.178  0.00  0.00    +0.055 A 
ATOM     17  C   UNL     1       4.377   3.253  23.113  0.00  0.00    +0.017 A 
ATOM     18  C   UNL     1       5.636   3.538  22.572  0.00  0.00    +0.021 A 
BRANCH  16  19
ATOM     19  C   UNL     1       2.130   4.364  23.664  0.00  0.00    +0.378 C 
ATOM     20  F   UNL     1       1.355   3.567  22.843  0.00  0.00    -0.203 F 
ATOM     21  F   UNL     1       2.080   3.878  24.958  0.00  0.00    -0.203 F 
ENDBRANCH  16  19
ENDBRANCH   9  14
BRANCH   1  22
ATOM     22  C   UNL     1      12.755   7.369  15.934  0.00  0.00    +0.116 C 
BRANCH  22  23
ATOM     23  N   UNL     1      13.788   6.459  16.456  0.00  0.00    -0.309 NA
ATOM     24  H   UNL     1      14.018   6.701  17.448  0.00  0.00    +0.123 HD
BRANCH  23  26
ATOM     25  C   UNL     1      16.267   6.675  16.433  0.00  0.00    +0.024 C 
ATOM     26  C   UNL     1      14.997   6.372  15.604  0.00  0.00    +0.056 C 
BRANCH  26  27
ATOM     27  C   UNL     1      15.033   4.985  14.871  0.00  0.00    -0.023 C 
ATOM     28  C   UNL     1      14.574   5.105  13.399  0.00  0.00    +0.012 C 
ATOM     29  C   UNL     1      14.137   3.951  15.591  0.00  0.00    +0.012 C 
ATOM     30  C   UNL     1      16.482   4.444  14.890  0.00  0.00    +0.012 C 
ENDBRANCH  26  27
ENDBRANCH  23  26
ENDBRANCH  22  23
ENDBRANCH   1  22
BRANCH   5  31
ATOM     31  C   UNL     1       6.784   7.637  19.047  0.00  0.00    +0.147 C 
BRANCH  31  32
ATOM     32  C   UNL     1       5.820   7.291  17.891  0.00  0.00    +0.096 C 
ATOM     33  N   UNL     1       4.460   7.686  18.249  0.00  0.00    -0.293 N 
ATOM     34  C   UNL     1       3.970   9.040  18.333  0.00  0.00    +0.239 C 
ATOM     35  O   UNL     1       2.828   9.250  18.825  0.00  0.00    -0.271 OA
ATOM     36  C   UNL     1       3.607   6.541  18.537  0.00  0.00    +0.108 C 
ATOM     37  C   UNL     1       4.503   5.317  18.429  0.00  0.00    +0.021 C 
ATOM     38  C   UNL     1       5.720   5.781  17.638  0.00  0.00    +0.026 C 
BRANCH  34  39
ATOM     39  C   UNL     1       4.770  10.185  17.844  0.00  0.00    +0.060 C 
ATOM     40  C   UNL     1       4.646  10.663  16.608  0.00  0.00    +0.013 C 
ENDBRANCH  34  39
ENDBRANCH  31  32
ENDBRANCH   5  31
TORSDOF 9
ENDMDL
