MODEL 1
REMARK VINA RESULT:    -8.239      0.000      0.000
REMARK INTER + INTRA:         -11.469
REMARK INTER:                 -10.888
REMARK INTRA:                  -0.580
REMARK UNBOUND:                -0.580
REMARK  Name = 
REMARK  8 active torsions:
REMARK  status: ('A' for Active; 'I' for Inactive)
REMARK    1  A    between atoms: C_1  and  C_2
REMARK    2  A    between atoms: C_2  and  C_3
REMARK    3  A    between atoms: C_3  and  C_4
REMARK    4  A    between atoms: C_3  and  C_6
REMARK    5  A    between atoms: C_3  and  O_26
REMARK    6  A    between atoms: C_4  and  C_5
REMARK    7  A    between atoms: C_13  and  C_15
REMARK    8  A    between atoms: C_21  and  C_23
REMARK                            x       y       z     vdW  Elec       q    Type
REMARK                         _______ _______ _______ _____ _____    ______ ____
ROOT
ATOM      1  C   UNL     1       2.498  11.699  16.101  0.00  0.00    -0.014 A 
ATOM      2  C   UNL     1       1.240  11.663  16.780  0.00  0.00    +0.007 A 
ATOM      3  C   UNL     1       1.046  10.852  17.912  0.00  0.00    +0.010 A 
ATOM      4  C   UNL     1       2.118  10.096  18.367  0.00  0.00    +0.000 A 
ATOM      5  C   UNL     1       2.219   9.237  19.438  0.00  0.00    +0.037 A 
ATOM      6  C   UNL     1       3.536   8.784  19.411  0.00  0.00    +0.069 A 
ATOM      7  N   UNL     1       4.216   9.334  18.377  0.00  0.00    -0.353 N 
ATOM      8  H   UNL     1       5.214   9.181  18.114  0.00  0.00    +0.166 HD
ATOM      9  C   UNL     1       3.336  10.132  17.748  0.00  0.00    +0.047 A 
ATOM     10  C   UNL     1       3.565  10.922  16.626  0.00  0.00    +0.032 A 
ENDROOT
BRANCH   6  11
ATOM     11  C   UNL     1       4.114   7.836  20.376  0.00  0.00    +0.123 A 
ATOM     12  C   UNL     1       3.458   6.901  21.146  0.00  0.00    +0.066 A 
ATOM     13  S   UNL     1       1.937   6.293  21.495  0.00  0.00    -0.084 S 
ATOM     14  C   UNL     1       2.567   5.171  22.630  0.00  0.00    +0.057 A 
ATOM     15  C   UNL     1       3.964   5.293  22.728  0.00  0.00    +0.044 A 
ATOM     16  C   UNL     1       4.400   6.283  21.862  0.00  0.00    +0.074 A 
ATOM     17  N   UNL     1       5.610   6.786  21.579  0.00  0.00    -0.276 N 
ATOM     18  H   UNL     1       6.527   6.500  21.987  0.00  0.00    +0.189 HD
ATOM     19  N   UNL     1       5.442   7.742  20.664  0.00  0.00    -0.171 NA
BRANCH  14  20
ATOM     20  C   UNL     1       1.737   4.220  23.428  0.00  0.00    +0.378 C 
ATOM     21  F   UNL     1       0.868   3.543  22.592  0.00  0.00    -0.203 F 
ATOM     22  F   UNL     1       2.558   3.313  24.069  0.00  0.00    -0.203 F 
ENDBRANCH  14  20
ENDBRANCH   6  11
BRANCH   1  23
ATOM     23  C   UNL     1       2.772  12.576  14.860  0.00  0.00    +0.091 C 
BRANCH  23  25
ATOM     24  C   UNL     1       1.941  15.021  14.373  0.00  0.00    +0.007 C 
ATOM     25  C   UNL     1       1.588  13.528  14.478  0.00  0.00    +0.036 C 
ENDBRANCH  23  25
BRANCH  23  26
ATOM     26  O   UNL     1       3.893  13.382  15.146  0.00  0.00    -0.384 OA
ATOM     27  H   UNL     1       4.342  13.007  15.950  0.00  0.00    +0.211 HD
ENDBRANCH  23  26
BRANCH  23  28
ATOM     28  C   UNL     1       3.155  11.651  13.664  0.00  0.00    +0.036 C 
ATOM     29  C   UNL     1       3.386  12.400  12.346  0.00  0.00    +0.007 C 
ENDBRANCH  23  28
ENDBRANCH   1  23
TORSDOF 6
ENDMDL
MODEL 2
REMARK VINA RESULT:    -8.225      6.136     11.792
REMARK INTER + INTRA:         -11.450
REMARK INTER:                 -10.736
REMARK INTRA:                  -0.714
REMARK UNBOUND:                -0.580
REMARK  Name = 
REMARK  8 active torsions:
REMARK  status: ('A' for Active; 'I' for Inactive)
REMARK    1  A    between atoms: C_1  and  C_2
REMARK    2  A    between atoms: C_2  and  C_3
REMARK    3  A    between atoms: C_3  and  C_4
REMARK    4  A    between atoms: C_3  and  C_6
REMARK    5  A    between atoms: C_3  and  O_26
REMARK    6  A    between atoms: C_4  and  C_5
REMARK    7  A    between atoms: C_13  and  C_15
REMARK    8  A    between atoms: C_21  and  C_23
REMARK                            x       y       z     vdW  Elec       q    Type
REMARK                         _______ _______ _______ _____ _____    ______ ____
ROOT
ATOM      1  C   UNL     1       6.367   2.325  26.973  0.00  0.00    -0.014 A 
ATOM      2  C   UNL     1       7.293   2.679  25.944  0.00  0.00    +0.007 A 
ATOM      3  C   UNL     1       6.853   3.214  24.720  0.00  0.00    +0.010 A 
ATOM      4  C   UNL     1       5.489   3.406  24.543  0.00  0.00    +0.000 A 
ATOM      5  C   UNL     1       4.788   3.915  23.473  0.00  0.00    +0.037 A 
ATOM      6  C   UNL     1       3.454   3.886  23.874  0.00  0.00    +0.069 A 
ATOM      7  N   UNL     1       3.335   3.387  25.128  0.00  0.00    -0.353 N 
ATOM      8  H   UNL     1       2.462   3.252  25.682  0.00  0.00    +0.166 HD
ATOM      9  C   UNL     1       4.588   3.098  25.522  0.00  0.00    +0.047 A 
ATOM     10  C   UNL     1       4.986   2.567  26.744  0.00  0.00    +0.032 A 
ENDROOT
BRANCH   6  11
ATOM     11  C   UNL     1       2.323   4.339  23.048  0.00  0.00    +0.123 A 
ATOM     12  C   UNL     1       2.269   5.426  22.205  0.00  0.00    +0.066 A 
ATOM     13  S   UNL     1       3.173   6.714  21.630  0.00  0.00    -0.084 S 
ATOM     14  C   UNL     1       1.882   7.278  20.653  0.00  0.00    +0.057 A 
ATOM     15  C   UNL     1       0.751   6.454  20.795  0.00  0.00    +0.044 A 
ATOM     16  C   UNL     1       1.040   5.428  21.681  0.00  0.00    +0.074 A 
ATOM     17  N   UNL     1       0.327   4.398  22.156  0.00  0.00    -0.276 N 
ATOM     18  H   UNL     1      -0.661   4.151  21.925  0.00  0.00    +0.189 HD
ATOM     19  N   UNL     1       1.110   3.723  22.997  0.00  0.00    -0.171 NA
BRANCH  14  20
ATOM     20  C   UNL     1       1.942   8.499  19.796  0.00  0.00    +0.378 C 
ATOM     21  F   UNL     1       1.000   8.410  18.788  0.00  0.00    -0.203 F 
ATOM     22  F   UNL     1       1.687   9.619  20.563  0.00  0.00    -0.203 F 
ENDBRANCH  14  20
ENDBRANCH   6  11
BRANCH   1  23
ATOM     23  C   UNL     1       6.791   1.743  28.339  0.00  0.00    +0.091 C 
BRANCH  23  25
ATOM     24  C   UNL     1       5.979   0.942  30.706  0.00  0.00    +0.007 C 
ATOM     25  C   UNL     1       5.614   1.594  29.362  0.00  0.00    +0.036 C 
ENDBRANCH  23  25
BRANCH  23  26
ATOM     26  O   UNL     1       7.324   0.457  28.110  0.00  0.00    -0.384 OA
ATOM     27  H   UNL     1       6.891   0.089  27.294  0.00  0.00    +0.211 HD
ENDBRANCH  23  26
BRANCH  23  28
ATOM     28  C   UNL     1       7.936   2.624  28.928  0.00  0.00    +0.036 C 
ATOM     29  C   UNL     1       7.496   4.042  29.313  0.00  0.00    +0.007 C 
ENDBRANCH  23  28
ENDBRANCH   1  23
TORSDOF 6
ENDMDL
MODEL 3
REMARK VINA RESULT:    -8.017      5.082      9.224
REMARK INTER + INTRA:         -11.174
REMARK INTER:                 -10.472
REMARK INTRA:                  -0.703
REMARK UNBOUND:                -0.580
REMARK  Name = 
REMARK  8 active torsions:
REMARK  status: ('A' for Active; 'I' for Inactive)
REMARK    1  A    between atoms: C_1  and  C_2
REMARK    2  A    between atoms: C_2  and  C_3
REMARK    3  A    between atoms: C_3  and  C_4
REMARK    4  A    between atoms: C_3  and  C_6
REMARK    5  A    between atoms: C_3  and  O_26
REMARK    6  A    between atoms: C_4  and  C_5
REMARK    7  A    between atoms: C_13  and  C_15
REMARK    8  A    between atoms: C_21  and  C_23
REMARK                            x       y       z     vdW  Elec       q    Type
REMARK                         _______ _______ _______ _____ _____    ______ ____
ROOT
ATOM      1  C   UNL     1       3.432   6.905  20.789  0.00  0.00    -0.014 A 
ATOM      2  C   UNL     1       2.351   6.190  20.185  0.00  0.00    +0.007 A 
ATOM      3  C   UNL     1       1.478   6.817  19.279  0.00  0.00    +0.010 A 
ATOM      4  C   UNL     1       1.705   8.152  18.970  0.00  0.00    +0.000 A 
ATOM      5  C   UNL     1       1.031   9.003  18.122  0.00  0.00    +0.037 A 
ATOM      6  C   UNL     1       1.723  10.210  18.203  0.00  0.00    +0.069 A 
ATOM      7  N   UNL     1       2.771  10.111  19.055  0.00  0.00    -0.353 N 
ATOM      8  H   UNL     1       3.461  10.852  19.308  0.00  0.00    +0.166 HD
ATOM      9  C   UNL     1       2.746   8.849  19.516  0.00  0.00    +0.047 A 
ATOM     10  C   UNL     1       3.629   8.262  20.416  0.00  0.00    +0.032 A 
ENDROOT
BRANCH   6  11
ATOM     11  C   UNL     1       1.366  11.429  17.460  0.00  0.00    +0.123 A 
ATOM     12  C   UNL     1       1.944  11.923  16.312  0.00  0.00    +0.066 A 
ATOM     13  S   UNL     1       3.154  11.625  15.193  0.00  0.00    -0.084 S 
ATOM     14  C   UNL     1       2.773  13.036  14.296  0.00  0.00    +0.057 A 
ATOM     15  C   UNL     1       1.704  13.731  14.890  0.00  0.00    +0.044 A 
ATOM     16  C   UNL     1       1.283  13.047  16.019  0.00  0.00    +0.074 A 
ATOM     17  N   UNL     1       0.325  13.277  16.927  0.00  0.00    -0.276 N 
ATOM     18  H   UNL     1      -0.343  14.078  16.954  0.00  0.00    +0.189 HD
ATOM     19  N   UNL     1       0.369  12.285  17.816  0.00  0.00    -0.171 NA
BRANCH  14  20
ATOM     20  C   UNL     1       3.501  13.481  13.071  0.00  0.00    +0.378 C 
ATOM     21  F   UNL     1       4.767  13.919  13.413  0.00  0.00    -0.203 F 
ATOM     22  F   UNL     1       3.604  12.428  12.184  0.00  0.00    -0.203 F 
ENDBRANCH  14  20
ENDBRANCH   6  11
BRANCH   1  23
ATOM     23  C   UNL     1       4.426   6.267  21.783  0.00  0.00    +0.091 C 
BRANCH  23  25
ATOM     24  C   UNL     1       3.264   4.643  23.490  0.00  0.00    +0.007 C 
ATOM     25  C   UNL     1       3.839   6.043  23.217  0.00  0.00    +0.036 C 
ENDBRANCH  23  25
BRANCH  23  26
ATOM     26  O   UNL     1       4.794   5.005  21.270  0.00  0.00    -0.384 OA
ATOM     27  H   UNL     1       4.181   4.327  21.660  0.00  0.00    +0.211 HD
ENDBRANCH  23  26
BRANCH  23  28
ATOM     28  C   UNL     1       5.716   7.143  21.837  0.00  0.00    +0.036 C 
ATOM     29  C   UNL     1       6.636   6.825  23.022  0.00  0.00    +0.007 C 
ENDBRANCH  23  28
ENDBRANCH   1  23
TORSDOF 6
ENDMDL
MODEL 4
REMARK VINA RESULT:    -7.810      5.125      7.140
REMARK INTER + INTRA:         -10.901
REMARK INTER:                 -10.369
REMARK INTRA:                  -0.532
REMARK UNBOUND:                -0.580
REMARK  Name = 
REMARK  8 active torsions:
REMARK  status: ('A' for Active; 'I' for Inactive)
REMARK    1  A    between atoms: C_1  and  C_2
REMARK    2  A    between atoms: C_2  and  C_3
REMARK    3  A    between atoms: C_3  and  C_4
REMARK    4  A    between atoms: C_3  and  C_6
REMARK    5  A    between atoms: C_3  and  O_26
REMARK    6  A    between atoms: C_4  and  C_5
REMARK    7  A    between atoms: C_13  and  C_15
REMARK    8  A    between atoms: C_21  and  C_23
REMARK                            x       y       z     vdW  Elec       q    Type
REMARK                         _______ _______ _______ _____ _____    ______ ____
ROOT
ATOM      1  C   UNL     1       2.357   6.536  19.886  0.00  0.00    -0.014 A 
ATOM      2  C   UNL     1       1.751   6.431  21.177  0.00  0.00    +0.007 A 
ATOM      3  C   UNL     1       2.485   5.991  22.292  0.00  0.00    +0.010 A 
ATOM      4  C   UNL     1       3.825   5.675  22.111  0.00  0.00    +0.000 A 
ATOM      5  C   UNL     1       4.773   5.238  23.009  0.00  0.00    +0.037 A 
ATOM      6  C   UNL     1       5.941   5.108  22.261  0.00  0.00    +0.069 A 
ATOM      7  N   UNL     1       5.729   5.448  20.967  0.00  0.00    -0.353 N 
ATOM      8  H   UNL     1       6.419   5.449  20.185  0.00  0.00    +0.166 HD
ATOM      9  C   UNL     1       4.431   5.791  20.892  0.00  0.00    +0.047 A 
ATOM     10  C   UNL     1       3.737   6.223  19.766  0.00  0.00    +0.032 A 
ENDROOT
BRANCH   6  11
ATOM     11  C   UNL     1       7.235   4.663  22.803  0.00  0.00    +0.123 A 
ATOM     12  C   UNL     1       8.331   5.432  23.122  0.00  0.00    +0.066 A 
ATOM     13  S   UNL     1       8.897   7.009  23.131  0.00  0.00    -0.084 S 
ATOM     14  C   UNL     1      10.420   6.536  23.763  0.00  0.00    +0.057 A 
ATOM     15  C   UNL     1      10.471   5.144  23.951  0.00  0.00    +0.044 A 
ATOM     16  C   UNL     1       9.260   4.585  23.573  0.00  0.00    +0.074 A 
ATOM     17  N   UNL     1       8.797   3.328  23.551  0.00  0.00    -0.276 N 
ATOM     18  H   UNL     1       9.301   2.462  23.843  0.00  0.00    +0.189 HD
ATOM     19  N   UNL     1       7.551   3.368  23.080  0.00  0.00    -0.171 NA
BRANCH  14  20
ATOM     20  C   UNL     1      11.548   7.474  24.041  0.00  0.00    +0.378 C 
ATOM     21  F   UNL     1      12.697   6.756  24.315  0.00  0.00    -0.203 F 
ATOM     22  F   UNL     1      11.763   8.281  22.940  0.00  0.00    -0.203 F 
ENDBRANCH  14  20
ENDBRANCH   6  11
BRANCH   1  23
ATOM     23  C   UNL     1       1.604   7.022  18.628  0.00  0.00    +0.091 C 
BRANCH  23  25
ATOM     24  C   UNL     1       2.238   9.386  19.585  0.00  0.00    +0.007 C 
ATOM     25  C   UNL     1       1.456   8.579  18.536  0.00  0.00    +0.036 C 
ENDBRANCH  23  25
BRANCH  23  26
ATOM     26  O   UNL     1       2.336   6.595  17.500  0.00  0.00    -0.384 OA
ATOM     27  H   UNL     1       1.785   5.924  17.016  0.00  0.00    +0.211 HD
ENDBRANCH  23  26
BRANCH  23  28
ATOM     28  C   UNL     1       0.211   6.323  18.573  0.00  0.00    +0.036 C 
ATOM     29  C   UNL     1      -0.491   6.438  17.214  0.00  0.00    +0.007 C 
ENDBRANCH  23  28
ENDBRANCH   1  23
TORSDOF 6
ENDMDL
MODEL 5
REMARK VINA RESULT:    -7.770      6.098      8.331
REMARK INTER + INTRA:         -10.849
REMARK INTER:                 -10.274
REMARK INTRA:                  -0.575
REMARK UNBOUND:                -0.580
REMARK  Name = 
REMARK  8 active torsions:
REMARK  status: ('A' for Active; 'I' for Inactive)
REMARK    1  A    between atoms: C_1  and  C_2
REMARK    2  A    between atoms: C_2  and  C_3
REMARK    3  A    between atoms: C_3  and  C_4
REMARK    4  A    between atoms: C_3  and  C_6
REMARK    5  A    between atoms: C_3  and  O_26
REMARK    6  A    between atoms: C_4  and  C_5
REMARK    7  A    between atoms: C_13  and  C_15
REMARK    8  A    between atoms: C_21  and  C_23
REMARK                            x       y       z     vdW  Elec       q    Type
REMARK                         _______ _______ _______ _____ _____    ______ ____
ROOT
ATOM      1  C   UNL     1       3.084   6.727  20.704  0.00  0.00    -0.014 A 
ATOM      2  C   UNL     1       3.477   5.814  21.731  0.00  0.00    +0.007 A 
ATOM      3  C   UNL     1       4.773   5.270  21.767  0.00  0.00    +0.010 A 
ATOM      4  C   UNL     1       5.672   5.658  20.782  0.00  0.00    +0.000 A 
ATOM      5  C   UNL     1       6.987   5.302  20.579  0.00  0.00    +0.037 A 
ATOM      6  C   UNL     1       7.380   6.019  19.451  0.00  0.00    +0.069 A 
ATOM      7  N   UNL     1       6.363   6.780  18.981  0.00  0.00    -0.353 N 
ATOM      8  H   UNL     1       6.371   7.418  18.156  0.00  0.00    +0.166 HD
ATOM      9  C   UNL     1       5.327   6.547  19.805  0.00  0.00    +0.047 A 
ATOM     10  C   UNL     1       4.054   7.106  19.738  0.00  0.00    +0.032 A 
ENDROOT
BRANCH   6  11
ATOM     11  C   UNL     1       8.723   5.961  18.851  0.00  0.00    +0.123 A 
ATOM     12  C   UNL     1       9.241   6.755  17.852  0.00  0.00    +0.066 A 
ATOM     13  S   UNL     1       8.865   8.026  16.829  0.00  0.00    -0.084 S 
ATOM     14  C   UNL     1      10.417   7.995  16.100  0.00  0.00    +0.057 A 
ATOM     15  C   UNL     1      11.212   6.980  16.663  0.00  0.00    +0.044 A 
ATOM     16  C   UNL     1      10.488   6.323  17.646  0.00  0.00    +0.074 A 
ATOM     17  N   UNL     1      10.772   5.301  18.464  0.00  0.00    -0.276 N 
ATOM     18  H   UNL     1      11.666   4.766  18.524  0.00  0.00    +0.189 HD
ATOM     19  N   UNL     1       9.690   5.073  19.210  0.00  0.00    -0.171 NA
BRANCH  14  20
ATOM     20  C   UNL     1      10.851   8.901  14.995  0.00  0.00    +0.378 C 
ATOM     21  F   UNL     1       9.994   8.767  13.918  0.00  0.00    -0.203 F 
ATOM     22  F   UNL     1      10.834  10.210  15.435  0.00  0.00    -0.203 F 
ENDBRANCH  14  20
ENDBRANCH   6  11
BRANCH   1  23
ATOM     23  C   UNL     1       1.680   7.364  20.619  0.00  0.00    +0.091 C 
BRANCH  23  25
ATOM     24  C   UNL     1       0.226   5.880  19.010  0.00  0.00    +0.007 C 
ATOM     25  C   UNL     1       0.988   7.198  19.224  0.00  0.00    +0.036 C 
ENDBRANCH  23  25
BRANCH  23  26
ATOM     26  O   UNL     1       0.864   6.728  21.578  0.00  0.00    -0.384 OA
ATOM     27  H   UNL     1       1.456   6.363  22.289  0.00  0.00    +0.211 HD
ENDBRANCH  23  26
BRANCH  23  28
ATOM     28  C   UNL     1       1.784   8.868  21.017  0.00  0.00    +0.036 C 
ATOM     29  C   UNL     1       1.901   9.823  19.823  0.00  0.00    +0.007 C 
ENDBRANCH  23  28
ENDBRANCH   1  23
TORSDOF 6
ENDMDL
MODEL 6
REMARK VINA RESULT:    -7.702      5.421      7.625
REMARK INTER + INTRA:         -10.758
REMARK INTER:                  -9.998
REMARK INTRA:                  -0.760
REMARK UNBOUND:                -0.580
REMARK  Name = 
REMARK  8 active torsions:
REMARK  status: ('A' for Active; 'I' for Inactive)
REMARK    1  A    between atoms: C_1  and  C_2
REMARK    2  A    between atoms: C_2  and  C_3
REMARK    3  A    between atoms: C_3  and  C_4
REMARK    4  A    between atoms: C_3  and  C_6
REMARK    5  A    between atoms: C_3  and  O_26
REMARK    6  A    between atoms: C_4  and  C_5
REMARK    7  A    between atoms: C_13  and  C_15
REMARK    8  A    between atoms: C_21  and  C_23
REMARK                            x       y       z     vdW  Elec       q    Type
REMARK                         _______ _______ _______ _____ _____    ______ ____
ROOT
ATOM      1  C   UNL     1       3.001   6.684  20.236  0.00  0.00    -0.014 A 
ATOM      2  C   UNL     1       3.657   6.274  19.034  0.00  0.00    +0.007 A 
ATOM      3  C   UNL     1       4.928   5.672  19.065  0.00  0.00    +0.010 A 
ATOM      4  C   UNL     1       5.525   5.471  20.303  0.00  0.00    +0.000 A 
ATOM      5  C   UNL     1       6.737   4.905  20.631  0.00  0.00    +0.037 A 
ATOM      6  C   UNL     1       6.790   4.957  22.023  0.00  0.00    +0.069 A 
ATOM      7  N   UNL     1       5.669   5.525  22.530  0.00  0.00    -0.353 N 
ATOM      8  H   UNL     1       5.434   5.691  23.532  0.00  0.00    +0.166 HD
ATOM      9  C   UNL     1       4.907   5.834  21.466  0.00  0.00    +0.047 A 
ATOM     10  C   UNL     1       3.651   6.431  21.473  0.00  0.00    +0.032 A 
ENDROOT
BRANCH   6  11
ATOM     11  C   UNL     1       7.911   4.460  22.835  0.00  0.00    +0.123 A 
ATOM     12  C   UNL     1       8.945   5.183  23.388  0.00  0.00    +0.066 A 
ATOM     13  S   UNL     1       9.565   6.733  23.523  0.00  0.00    -0.084 S 
ATOM     14  C   UNL     1      10.890   6.198  24.473  0.00  0.00    +0.057 A 
ATOM     15  C   UNL     1      10.835   4.807  24.667  0.00  0.00    +0.044 A 
ATOM     16  C   UNL     1       9.712   4.299  24.032  0.00  0.00    +0.074 A 
ATOM     17  N   UNL     1       9.209   3.064  23.907  0.00  0.00    -0.276 N 
ATOM     18  H   UNL     1       9.596   2.179  24.303  0.00  0.00    +0.189 HD
ATOM     19  N   UNL     1       8.100   3.155  23.173  0.00  0.00    -0.171 NA
BRANCH  14  20
ATOM     20  C   UNL     1      11.970   7.088  24.993  0.00  0.00    +0.378 C 
ATOM     21  F   UNL     1      11.875   8.334  24.401  0.00  0.00    -0.203 F 
ATOM     22  F   UNL     1      11.845   7.220  26.362  0.00  0.00    -0.203 F 
ENDBRANCH  14  20
ENDBRANCH   6  11
BRANCH   1  23
ATOM     23  C   UNL     1       1.603   7.340  20.263  0.00  0.00    +0.091 C 
BRANCH  23  25
ATOM     24  C   UNL     1       0.009   6.030  18.636  0.00  0.00    +0.007 C 
ATOM     25  C   UNL     1       0.850   7.292  18.891  0.00  0.00    +0.036 C 
ENDBRANCH  23  25
BRANCH  23  26
ATOM     26  O   UNL     1       0.821   6.640  21.205  0.00  0.00    -0.384 OA
ATOM     27  H   UNL     1      -0.068   6.466  20.794  0.00  0.00    +0.211 HD
ENDBRANCH  23  26
BRANCH  23  28
ATOM     28  C   UNL     1       1.745   8.807  20.773  0.00  0.00    +0.036 C 
ATOM     29  C   UNL     1       2.137   9.811  19.681  0.00  0.00    +0.007 C 
ENDBRANCH  23  28
ENDBRANCH   1  23
TORSDOF 6
ENDMDL
MODEL 7
REMARK VINA RESULT:    -7.633      4.635      6.784
REMARK INTER + INTRA:         -10.668
REMARK INTER:                  -9.921
REMARK INTRA:                  -0.747
REMARK UNBOUND:                -0.580
REMARK  Name = 
REMARK  8 active torsions:
REMARK  status: ('A' for Active; 'I' for Inactive)
REMARK    1  A    between atoms: C_1  and  C_2
REMARK    2  A    between atoms: C_2  and  C_3
REMARK    3  A    between atoms: C_3  and  C_4
REMARK    4  A    between atoms: C_3  and  C_6
REMARK    5  A    between atoms: C_3  and  O_26
REMARK    6  A    between atoms: C_4  and  C_5
REMARK    7  A    between atoms: C_13  and  C_15
REMARK    8  A    between atoms: C_21  and  C_23
REMARK                            x       y       z     vdW  Elec       q    Type
REMARK                         _______ _______ _______ _____ _____    ______ ____
ROOT
ATOM      1  C   UNL     1       2.943   6.910  20.001  0.00  0.00    -0.014 A 
ATOM      2  C   UNL     1       2.386   6.467  21.240  0.00  0.00    +0.007 A 
ATOM      3  C   UNL     1       3.208   6.115  22.325  0.00  0.00    +0.010 A 
ATOM      4  C   UNL     1       4.583   6.226  22.166  0.00  0.00    +0.000 A 
ATOM      5  C   UNL     1       5.611   5.967  23.045  0.00  0.00    +0.037 A 
ATOM      6  C   UNL     1       6.772   6.278  22.340  0.00  0.00    +0.069 A 
ATOM      7  N   UNL     1       6.478   6.709  21.089  0.00  0.00    -0.353 N 
ATOM      8  H   UNL     1       7.143   7.011  20.345  0.00  0.00    +0.166 HD
ATOM      9  C   UNL     1       5.138   6.670  20.999  0.00  0.00    +0.047 A 
ATOM     10  C   UNL     1       4.356   7.027  19.905  0.00  0.00    +0.032 A 
ENDROOT
BRANCH   6  11
ATOM     11  C   UNL     1       8.135   6.158  22.880  0.00  0.00    +0.123 A 
ATOM     12  C   UNL     1       8.783   5.020  23.305  0.00  0.00    +0.066 A 
ATOM     13  S   UNL     1       8.588   3.368  23.498  0.00  0.00    -0.084 S 
ATOM     14  C   UNL     1      10.170   3.181  24.133  0.00  0.00    +0.057 A 
ATOM     15  C   UNL     1      10.832   4.421  24.194  0.00  0.00    +0.044 A 
ATOM     16  C   UNL     1       9.994   5.413  23.710  0.00  0.00    +0.074 A 
ATOM     17  N   UNL     1      10.133   6.737  23.558  0.00  0.00    -0.276 N 
ATOM     18  H   UNL     1      10.968   7.317  23.791  0.00  0.00    +0.189 HD
ATOM     19  N   UNL     1       8.993   7.202  23.047  0.00  0.00    -0.171 NA
BRANCH  14  20
ATOM     20  C   UNL     1      10.750   1.883  24.589  0.00  0.00    +0.378 C 
ATOM     21  F   UNL     1      10.541   1.730  25.947  0.00  0.00    -0.203 F 
ATOM     22  F   UNL     1      10.147   0.842  23.911  0.00  0.00    -0.203 F 
ENDBRANCH  14  20
ENDBRANCH   6  11
BRANCH   1  23
ATOM     23  C   UNL     1       2.090   7.319  18.780  0.00  0.00    +0.091 C 
BRANCH  23  25
ATOM     24  C   UNL     1       1.988   9.801  19.636  0.00  0.00    +0.007 C 
ATOM     25  C   UNL     1       2.153   8.846  18.441  0.00  0.00    +0.036 C 
ENDBRANCH  23  25
BRANCH  23  26
ATOM     26  O   UNL     1       2.579   6.612  17.661  0.00  0.00    -0.384 OA
ATOM     27  H   UNL     1       1.810   6.152  17.231  0.00  0.00    +0.211 HD
ENDBRANCH  23  26
BRANCH  23  28
ATOM     28  C   UNL     1       0.619   6.858  19.017  0.00  0.00    +0.036 C 
ATOM     29  C   UNL     1      -0.128   6.473  17.734  0.00  0.00    +0.007 C 
ENDBRANCH  23  28
ENDBRANCH   1  23
TORSDOF 6
ENDMDL
MODEL 8
REMARK VINA RESULT:    -7.626      4.893      7.556
REMARK INTER + INTRA:         -10.658
REMARK INTER:                 -10.040
REMARK INTRA:                  -0.618
REMARK UNBOUND:                -0.580
REMARK  Name = 
REMARK  8 active torsions:
REMARK  status: ('A' for Active; 'I' for Inactive)
REMARK    1  A    between atoms: C_1  and  C_2
REMARK    2  A    between atoms: C_2  and  C_3
REMARK    3  A    between atoms: C_3  and  C_4
REMARK    4  A    between atoms: C_3  and  C_6
REMARK    5  A    between atoms: C_3  and  O_26
REMARK    6  A    between atoms: C_4  and  C_5
REMARK    7  A    between atoms: C_13  and  C_15
REMARK    8  A    between atoms: C_21  and  C_23
REMARK                            x       y       z     vdW  Elec       q    Type
REMARK                         _______ _______ _______ _____ _____    ______ ____
ROOT
ATOM      1  C   UNL     1       2.652   6.182  21.211  0.00  0.00    -0.014 A 
ATOM      2  C   UNL     1       1.893   5.402  22.137  0.00  0.00    +0.007 A 
ATOM      3  C   UNL     1       2.521   4.525  23.040  0.00  0.00    +0.010 A 
ATOM      4  C   UNL     1       3.907   4.449  23.019  0.00  0.00    +0.000 A 
ATOM      5  C   UNL     1       4.775   3.701  23.783  0.00  0.00    +0.037 A 
ATOM      6  C   UNL     1       6.045   4.053  23.329  0.00  0.00    +0.069 A 
ATOM      7  N   UNL     1       5.968   4.972  22.338  0.00  0.00    -0.353 N 
ATOM      8  H   UNL     1       6.754   5.417  21.815  0.00  0.00    +0.166 HD
ATOM      9  C   UNL     1       4.656   5.203  22.160  0.00  0.00    +0.047 A 
ATOM     10  C   UNL     1       4.069   6.080  21.253  0.00  0.00    +0.032 A 
ENDROOT
BRANCH   6  11
ATOM     11  C   UNL     1       7.303   3.502  23.858  0.00  0.00    +0.123 A 
ATOM     12  C   UNL     1       7.535   2.954  25.099  0.00  0.00    +0.066 A 
ATOM     13  S   UNL     1       6.794   2.597  26.559  0.00  0.00    -0.084 S 
ATOM     14  C   UNL     1       8.239   1.946  27.216  0.00  0.00    +0.057 A 
ATOM     15  C   UNL     1       9.290   2.024  26.284  0.00  0.00    +0.044 A 
ATOM     16  C   UNL     1       8.823   2.599  25.113  0.00  0.00    +0.074 A 
ATOM     17  N   UNL     1       9.404   2.898  23.943  0.00  0.00    -0.276 N 
ATOM     18  H   UNL     1      10.398   2.736  23.670  0.00  0.00    +0.189 HD
ATOM     19  N   UNL     1       8.474   3.453  23.165  0.00  0.00    -0.171 NA
BRANCH  14  20
ATOM     20  C   UNL     1       8.368   1.403  28.601  0.00  0.00    +0.378 C 
ATOM     21  F   UNL     1       9.412   2.031  29.254  0.00  0.00    -0.203 F 
ATOM     22  F   UNL     1       7.194   1.622  29.296  0.00  0.00    -0.203 F 
ENDBRANCH  14  20
ENDBRANCH   6  11
BRANCH   1  23
ATOM     23  C   UNL     1       2.019   7.167  20.204  0.00  0.00    +0.091 C 
BRANCH  23  25
ATOM     24  C   UNL     1       2.177   9.766  19.852  0.00  0.00    +0.007 C 
ATOM     25  C   UNL     1       1.785   8.604  20.780  0.00  0.00    +0.036 C 
ENDBRANCH  23  25
BRANCH  23  26
ATOM     26  O   UNL     1       2.899   7.283  19.108  0.00  0.00    -0.384 OA
ATOM     27  H   UNL     1       2.930   8.241  18.842  0.00  0.00    +0.211 HD
ENDBRANCH  23  26
BRANCH  23  28
ATOM     28  C   UNL     1       0.687   6.554  19.671  0.00  0.00    +0.036 C 
ATOM     29  C   UNL     1       0.434   6.814  18.181  0.00  0.00    +0.007 C 
ENDBRANCH  23  28
ENDBRANCH   1  23
TORSDOF 6
ENDMDL
MODEL 9
REMARK VINA RESULT:    -7.544      5.614      8.215
REMARK INTER + INTRA:         -10.550
REMARK INTER:                  -9.845
REMARK INTRA:                  -0.705
REMARK UNBOUND:                -0.580
REMARK  Name = 
REMARK  8 active torsions:
REMARK  status: ('A' for Active; 'I' for Inactive)
REMARK    1  A    between atoms: C_1  and  C_2
REMARK    2  A    between atoms: C_2  and  C_3
REMARK    3  A    between atoms: C_3  and  C_4
REMARK    4  A    between atoms: C_3  and  C_6
REMARK    5  A    between atoms: C_3  and  O_26
REMARK    6  A    between atoms: C_4  and  C_5
REMARK    7  A    between atoms: C_13  and  C_15
REMARK    8  A    between atoms: C_21  and  C_23
REMARK                            x       y       z     vdW  Elec       q    Type
REMARK                         _______ _______ _______ _____ _____    ______ ____
ROOT
ATOM      1  C   UNL     1       2.966   6.375  21.583  0.00  0.00    -0.014 A 
ATOM      2  C   UNL     1       2.890   5.468  22.685  0.00  0.00    +0.007 A 
ATOM      3  C   UNL     1       4.047   4.884  23.230  0.00  0.00    +0.010 A 
ATOM      4  C   UNL     1       5.274   5.226  22.677  0.00  0.00    +0.000 A 
ATOM      5  C   UNL     1       6.549   4.826  23.010  0.00  0.00    +0.037 A 
ATOM      6  C   UNL     1       7.380   5.510  22.125  0.00  0.00    +0.069 A 
ATOM      7  N   UNL     1       6.658   6.294  21.289  0.00  0.00    -0.353 N 
ATOM      8  H   UNL     1       7.012   6.917  20.531  0.00  0.00    +0.166 HD
ATOM      9  C   UNL     1       5.374   6.109  21.639  0.00  0.00    +0.047 A 
ATOM     10  C   UNL     1       4.251   6.706  21.075  0.00  0.00    +0.032 A 
ENDROOT
BRANCH   6  11
ATOM     11  C   UNL     1       8.848   5.399  22.101  0.00  0.00    +0.123 A 
ATOM     12  C   UNL     1       9.688   5.480  21.014  0.00  0.00    +0.066 A 
ATOM     13  S   UNL     1       9.701   5.694  19.352  0.00  0.00    -0.084 S 
ATOM     14  C   UNL     1      11.411   5.570  19.278  0.00  0.00    +0.057 A 
ATOM     15  C   UNL     1      11.952   5.354  20.558  0.00  0.00    +0.044 A 
ATOM     16  C   UNL     1      10.926   5.318  21.489  0.00  0.00    +0.074 A 
ATOM     17  N   UNL     1      10.898   5.139  22.816  0.00  0.00    -0.276 N 
ATOM     18  H   UNL     1      11.712   4.986  23.452  0.00  0.00    +0.189 HD
ATOM     19  N   UNL     1       9.623   5.189  23.201  0.00  0.00    -0.171 NA
BRANCH  14  20
ATOM     20  C   UNL     1      12.209   5.649  18.018  0.00  0.00    +0.378 C 
ATOM     21  F   UNL     1      12.630   4.383  17.653  0.00  0.00    -0.203 F 
ATOM     22  F   UNL     1      11.433   6.183  17.008  0.00  0.00    -0.203 F 
ENDBRANCH  14  20
ENDBRANCH   6  11
BRANCH   1  23
ATOM     23  C   UNL     1       1.732   7.054  20.950  0.00  0.00    +0.091 C 
BRANCH  23  25
ATOM     24  C   UNL     1       0.365   6.041  18.947  0.00  0.00    +0.007 C 
ATOM     25  C   UNL     1       0.633   6.050  20.462  0.00  0.00    +0.036 C 
ENDBRANCH  23  25
BRANCH  23  26
ATOM     26  O   UNL     1       1.148   7.882  21.932  0.00  0.00    -0.384 OA
ATOM     27  H   UNL     1       0.193   7.622  22.021  0.00  0.00    +0.211 HD
ENDBRANCH  23  26
BRANCH  23  28
ATOM     28  C   UNL     1       2.206   7.975  19.784  0.00  0.00    +0.036 C 
ATOM     29  C   UNL     1       1.977   9.470  20.038  0.00  0.00    +0.007 C 
ENDBRANCH  23  28
ENDBRANCH   1  23
TORSDOF 6
ENDMDL
