MODEL 1
REMARK VINA RESULT:    -8.174      0.000      0.000
REMARK INTER + INTRA:         -13.278
REMARK INTER:                 -12.236
REMARK INTRA:                  -1.042
REMARK UNBOUND:                -1.042
REMARK  Name = 
REMARK  13 active torsions:
REMARK  status: ('A' for Active; 'I' for Inactive)
REMARK    1  A    between atoms: C_1  and  C_2
REMARK    2  A    between atoms: C_2  and  C_3
REMARK    3  A    between atoms: C_2  and  C_4
REMARK    4  A    between atoms: C_4  and  N_5
REMARK    5  A    between atoms: N_5  and  C_6
REMARK    6  A    between atoms: C_6  and  C_7
REMARK    7  A    between atoms: N_13  and  C_29
REMARK    8  A    between atoms: C_17  and  C_19
REMARK    9  A    between atoms: C_22  and  C_24
REMARK   10  A    between atoms: C_29  and  C_30
REMARK   11  A    between atoms: C_30  and  C_31
REMARK   12  A    between atoms: C_30  and  C_32
REMARK   13  A    between atoms: C_30  and  O_33
REMARK                            x       y       z     vdW  Elec       q    Type
REMARK                         _______ _______ _______ _____ _____    ______ ____
ROOT
ATOM      1  C   UNL     1       2.088  10.424  18.088  0.00  0.00    -0.031 A 
ATOM      2  C   UNL     1       1.780   9.745  19.296  0.00  0.00    +0.007 A 
ATOM      3  C   UNL     1       2.747   8.959  19.945  0.00  0.00    +0.028 A 
ATOM      4  C   UNL     1       4.013   8.872  19.362  0.00  0.00    +0.070 A 
ATOM      5  N   UNL     1       5.100   8.197  19.782  0.00  0.00    -0.309 N 
ATOM      6  C   UNL     1       6.028   8.455  18.814  0.00  0.00    +0.203 A 
ATOM      7  N   UNL     1       7.369   7.956  18.839  0.00  0.00    -0.251 N 
ATOM      8  H   UNL     1       8.150   8.629  18.664  0.00  0.00    +0.158 HD
ATOM      9  C   UNL     1       7.659   6.549  18.898  0.00  0.00    +0.257 C 
ATOM     10  O   UNL     1       6.757   5.706  18.624  0.00  0.00    -0.269 OA
ATOM     11  N   UNL     1       5.587   9.281  17.832  0.00  0.00    -0.214 NA
ATOM     12  C   UNL     1       4.314   9.519  18.196  0.00  0.00    +0.091 A 
ATOM     13  C   UNL     1       3.381  10.312  17.532  0.00  0.00    +0.034 A 
ENDROOT
BRANCH   9  14
ATOM     14  C   UNL     1       8.999   6.076  19.285  0.00  0.00    +0.075 A 
ATOM     15  S   UNL     1      10.213   5.583  18.226  0.00  0.00    -0.084 S 
ATOM     16  C   UNL     1      11.376   5.288  19.407  0.00  0.00    +0.023 A 
ATOM     17  C   UNL     1      10.826   5.578  20.649  0.00  0.00    +0.017 A 
ATOM     18  C   UNL     1       9.499   6.023  20.581  0.00  0.00    +0.021 A 
BRANCH  16  19
ATOM     19  C   UNL     1      12.746   4.813  19.152  0.00  0.00    +0.026 A 
ATOM     20  C   UNL     1      13.219   4.175  18.020  0.00  0.00    +0.143 A 
ATOM     21  N   UNL     1      14.534   3.922  18.176  0.00  0.00    -0.182 NA
ATOM     22  N   UNL     1      14.899   4.377  19.366  0.00  0.00    -0.284 N 
ATOM     23  H   UNL     1      15.872   4.318  19.747  0.00  0.00    +0.188 HD
ATOM     24  C   UNL     1      13.839   4.925  19.986  0.00  0.00    +0.114 A 
ENDBRANCH  16  19
ENDBRANCH   9  14
BRANCH   1  25
ATOM     25  C   UNL     1       1.052  11.300  17.425  0.00  0.00    +0.116 C 
BRANCH  25  26
ATOM     26  N   UNL     1       1.431  11.663  16.052  0.00  0.00    -0.312 NA
ATOM     27  H   UNL     1       2.392  11.298  15.859  0.00  0.00    +0.122 HD
BRANCH  26  28
ATOM     28  C   UNL     1       1.420  13.118  15.832  0.00  0.00    +0.084 C 
BRANCH  28  30
ATOM     29  C   UNL     1       1.498  14.662  13.799  0.00  0.00    +0.008 C 
ATOM     30  C   UNL     1       2.163  13.484  14.531  0.00  0.00    -0.003 C 
ATOM     31  C   UNL     1       3.649  13.769  14.800  0.00  0.00    +0.008 C 
ENDBRANCH  28  30
ENDBRANCH  26  28
ENDBRANCH  25  26
ENDBRANCH   1  25
BRANCH   5  32
ATOM     32  C   UNL     1       5.280   7.498  21.065  0.00  0.00    +0.159 C 
BRANCH  32  33
ATOM     33  C   UNL     1       4.580   6.110  21.087  0.00  0.00    +0.078 C 
ATOM     34  C   UNL     1       3.295   6.152  21.932  0.00  0.00    +0.043 C 
ATOM     35  C   UNL     1       5.535   5.062  21.702  0.00  0.00    +0.043 C 
BRANCH  33  36
ATOM     36  O   UNL     1       4.228   5.718  19.781  0.00  0.00    -0.387 OA
ATOM     37  H   UNL     1       3.253   5.549  19.763  0.00  0.00    +0.210 HD
ENDBRANCH  33  36
ENDBRANCH  32  33
ENDBRANCH   5  32
TORSDOF 9
ENDMDL
MODEL 2
REMARK VINA RESULT:    -8.085      3.412      5.001
REMARK INTER + INTRA:         -13.145
REMARK INTER:                 -11.898
REMARK INTRA:                  -1.247
REMARK UNBOUND:                -1.042
REMARK  Name = 
REMARK  13 active torsions:
REMARK  status: ('A' for Active; 'I' for Inactive)
REMARK    1  A    between atoms: C_1  and  C_2
REMARK    2  A    between atoms: C_2  and  C_3
REMARK    3  A    between atoms: C_2  and  C_4
REMARK    4  A    between atoms: C_4  and  N_5
REMARK    5  A    between atoms: N_5  and  C_6
REMARK    6  A    between atoms: C_6  and  C_7
REMARK    7  A    between atoms: N_13  and  C_29
REMARK    8  A    between atoms: C_17  and  C_19
REMARK    9  A    between atoms: C_22  and  C_24
REMARK   10  A    between atoms: C_29  and  C_30
REMARK   11  A    between atoms: C_30  and  C_31
REMARK   12  A    between atoms: C_30  and  C_32
REMARK   13  A    between atoms: C_30  and  O_33
REMARK                            x       y       z     vdW  Elec       q    Type
REMARK                         _______ _______ _______ _____ _____    ______ ____
ROOT
ATOM      1  C   UNL     1       3.226   6.326  21.482  0.00  0.00    -0.031 A 
ATOM      2  C   UNL     1       3.547   7.572  20.883  0.00  0.00    +0.007 A 
ATOM      3  C   UNL     1       4.823   7.802  20.341  0.00  0.00    +0.028 A 
ATOM      4  C   UNL     1       5.757   6.766  20.413  0.00  0.00    +0.070 A 
ATOM      5  N   UNL     1       7.028   6.732  19.971  0.00  0.00    -0.309 N 
ATOM      6  C   UNL     1       7.458   5.488  20.333  0.00  0.00    +0.203 A 
ATOM      7  N   UNL     1       8.766   4.981  20.051  0.00  0.00    -0.251 N 
ATOM      8  H   UNL     1       8.846   4.027  19.630  0.00  0.00    +0.158 HD
ATOM      9  C   UNL     1       9.956   5.646  20.508  0.00  0.00    +0.257 C 
ATOM     10  O   UNL     1       9.882   6.519  21.419  0.00  0.00    -0.269 OA
ATOM     11  N   UNL     1       6.512   4.733  20.947  0.00  0.00    -0.214 NA
ATOM     12  C   UNL     1       5.455   5.565  20.993  0.00  0.00    +0.091 A 
ATOM     13  C   UNL     1       4.199   5.303  21.534  0.00  0.00    +0.034 A 
ENDROOT
BRANCH   9  14
ATOM     14  C   UNL     1      11.267   5.326  19.916  0.00  0.00    +0.075 A 
ATOM     15  S   UNL     1      11.580   5.109  18.274  0.00  0.00    -0.084 S 
ATOM     16  C   UNL     1      13.237   4.864  18.437  0.00  0.00    +0.023 A 
ATOM     17  C   UNL     1      13.567   4.955  19.783  0.00  0.00    +0.017 A 
ATOM     18  C   UNL     1      12.466   5.218  20.610  0.00  0.00    +0.021 A 
BRANCH  16  19
ATOM     19  C   UNL     1      14.172   4.609  17.328  0.00  0.00    +0.026 A 
ATOM     20  C   UNL     1      13.968   3.801  16.224  0.00  0.00    +0.143 A 
ATOM     21  N   UNL     1      15.060   3.852  15.435  0.00  0.00    -0.182 NA
ATOM     22  N   UNL     1      15.941   4.660  16.009  0.00  0.00    -0.284 N 
ATOM     23  H   UNL     1      16.881   4.888  15.609  0.00  0.00    +0.188 HD
ATOM     24  C   UNL     1      15.435   5.138  17.159  0.00  0.00    +0.114 A 
ENDBRANCH  16  19
ENDBRANCH   9  14
BRANCH   1  25
ATOM     25  C   UNL     1       1.838   6.078  22.021  0.00  0.00    +0.116 C 
BRANCH  25  26
ATOM     26  N   UNL     1       0.796   6.631  21.144  0.00  0.00    -0.312 NA
ATOM     27  H   UNL     1      -0.025   6.908  21.729  0.00  0.00    +0.122 HD
BRANCH  26  28
ATOM     28  C   UNL     1       0.353   5.669  20.122  0.00  0.00    +0.084 C 
BRANCH  28  30
ATOM     29  C   UNL     1      -0.548   5.910  17.744  0.00  0.00    +0.008 C 
ATOM     30  C   UNL     1       0.617   6.213  18.703  0.00  0.00    -0.003 C 
ATOM     31  C   UNL     1       0.929   7.717  18.733  0.00  0.00    +0.008 C 
ENDBRANCH  28  30
ENDBRANCH  26  28
ENDBRANCH  25  26
ENDBRANCH   1  25
BRANCH   5  32
ATOM     32  C   UNL     1       7.716   7.738  19.144  0.00  0.00    +0.159 C 
BRANCH  32  33
ATOM     33  C   UNL     1       7.557   7.463  17.622  0.00  0.00    +0.078 C 
ATOM     34  C   UNL     1       8.873   7.733  16.872  0.00  0.00    +0.043 C 
ATOM     35  C   UNL     1       6.465   8.390  17.044  0.00  0.00    +0.043 C 
BRANCH  33  36
ATOM     36  O   UNL     1       7.200   6.118  17.402  0.00  0.00    -0.387 OA
ATOM     37  H   UNL     1       7.006   5.703  18.278  0.00  0.00    +0.210 HD
ENDBRANCH  33  36
ENDBRANCH  32  33
ENDBRANCH   5  32
TORSDOF 9
ENDMDL
MODEL 3
REMARK VINA RESULT:    -7.998      3.419      9.809
REMARK INTER + INTRA:         -13.014
REMARK INTER:                 -11.758
REMARK INTRA:                  -1.256
REMARK UNBOUND:                -1.042
REMARK  Name = 
REMARK  13 active torsions:
REMARK  status: ('A' for Active; 'I' for Inactive)
REMARK    1  A    between atoms: C_1  and  C_2
REMARK    2  A    between atoms: C_2  and  C_3
REMARK    3  A    between atoms: C_2  and  C_4
REMARK    4  A    between atoms: C_4  and  N_5
REMARK    5  A    between atoms: N_5  and  C_6
REMARK    6  A    between atoms: C_6  and  C_7
REMARK    7  A    between atoms: N_13  and  C_29
REMARK    8  A    between atoms: C_17  and  C_19
REMARK    9  A    between atoms: C_22  and  C_24
REMARK   10  A    between atoms: C_29  and  C_30
REMARK   11  A    between atoms: C_30  and  C_31
REMARK   12  A    between atoms: C_30  and  C_32
REMARK   13  A    between atoms: C_30  and  O_33
REMARK                            x       y       z     vdW  Elec       q    Type
REMARK                         _______ _______ _______ _____ _____    ______ ____
ROOT
ATOM      1  C   UNL     1       5.462   4.491  22.654  0.00  0.00    -0.031 A 
ATOM      2  C   UNL     1       4.075   4.460  22.957  0.00  0.00    +0.007 A 
ATOM      3  C   UNL     1       3.168   5.270  22.255  0.00  0.00    +0.028 A 
ATOM      4  C   UNL     1       3.676   6.101  21.254  0.00  0.00    +0.070 A 
ATOM      5  N   UNL     1       3.025   6.958  20.446  0.00  0.00    -0.309 N 
ATOM      6  C   UNL     1       4.023   7.508  19.694  0.00  0.00    +0.203 A 
ATOM      7  N   UNL     1       3.808   8.478  18.664  0.00  0.00    -0.251 N 
ATOM      8  H   UNL     1       4.264   8.323  17.737  0.00  0.00    +0.158 HD
ATOM      9  C   UNL     1       3.160   9.735  18.925  0.00  0.00    +0.257 C 
ATOM     10  O   UNL     1       3.036  10.148  20.113  0.00  0.00    -0.269 OA
ATOM     11  N   UNL     1       5.257   7.015  19.969  0.00  0.00    -0.214 NA
ATOM     12  C   UNL     1       5.011   6.140  20.961  0.00  0.00    +0.091 A 
ATOM     13  C   UNL     1       5.936   5.345  21.634  0.00  0.00    +0.034 A 
ENDROOT
BRANCH   9  14
ATOM     14  C   UNL     1       2.627  10.547  17.816  0.00  0.00    +0.075 A 
ATOM     15  S   UNL     1       3.507  11.100  16.490  0.00  0.00    -0.084 S 
ATOM     16  C   UNL     1       2.212  11.838  15.709  0.00  0.00    +0.023 A 
ATOM     17  C   UNL     1       1.069  11.655  16.479  0.00  0.00    +0.017 A 
ATOM     18  C   UNL     1       1.301  10.929  17.654  0.00  0.00    +0.021 A 
BRANCH  16  19
ATOM     19  C   UNL     1       2.288  12.547  14.420  0.00  0.00    +0.026 A 
ATOM     20  C   UNL     1       1.685  13.744  14.081  0.00  0.00    +0.143 A 
ATOM     21  N   UNL     1       2.017  14.060  12.813  0.00  0.00    -0.182 NA
ATOM     22  N   UNL     1       2.804  13.100  12.347  0.00  0.00    -0.284 N 
ATOM     23  H   UNL     1       3.217  13.091  11.386  0.00  0.00    +0.188 HD
ATOM     24  C   UNL     1       2.990  12.166  13.296  0.00  0.00    +0.114 A 
ENDBRANCH  16  19
ENDBRANCH   9  14
BRANCH   1  25
ATOM     25  C   UNL     1       6.420   3.583  23.387  0.00  0.00    +0.116 C 
BRANCH  25  26
ATOM     26  N   UNL     1       7.775   3.635  22.822  0.00  0.00    -0.312 NA
ATOM     27  H   UNL     1       8.088   2.661  22.606  0.00  0.00    +0.122 HD
BRANCH  26  28
ATOM     28  C   UNL     1       8.744   4.258  23.738  0.00  0.00    +0.084 C 
BRANCH  28  30
ATOM     29  C   UNL     1       9.495   5.243  21.504  0.00  0.00    +0.008 C 
ATOM     30  C   UNL     1       9.514   5.394  23.036  0.00  0.00    -0.003 C 
ATOM     31  C   UNL     1       8.983   6.772  23.460  0.00  0.00    +0.008 C 
ENDBRANCH  28  30
ENDBRANCH  26  28
ENDBRANCH  25  26
ENDBRANCH   1  25
BRANCH   5  32
ATOM     32  C   UNL     1       1.568   7.122  20.300  0.00  0.00    +0.159 C 
BRANCH  32  33
ATOM     33  C   UNL     1       1.007   6.358  19.067  0.00  0.00    +0.078 C 
ATOM     34  C   UNL     1       0.361   7.329  18.064  0.00  0.00    +0.043 C 
ATOM     35  C   UNL     1      -0.066   5.349  19.533  0.00  0.00    +0.043 C 
BRANCH  33  36
ATOM     36  O   UNL     1       2.043   5.673  18.402  0.00  0.00    -0.387 OA
ATOM     37  H   UNL     1       2.719   6.336  18.118  0.00  0.00    +0.210 HD
ENDBRANCH  33  36
ENDBRANCH  32  33
ENDBRANCH   5  32
TORSDOF 9
ENDMDL
MODEL 4
REMARK VINA RESULT:    -7.978      3.880      5.984
REMARK INTER + INTRA:         -12.984
REMARK INTER:                 -11.803
REMARK INTRA:                  -1.181
REMARK UNBOUND:                -1.042
REMARK  Name = 
REMARK  13 active torsions:
REMARK  status: ('A' for Active; 'I' for Inactive)
REMARK    1  A    between atoms: C_1  and  C_2
REMARK    2  A    between atoms: C_2  and  C_3
REMARK    3  A    between atoms: C_2  and  C_4
REMARK    4  A    between atoms: C_4  and  N_5
REMARK    5  A    between atoms: N_5  and  C_6
REMARK    6  A    between atoms: C_6  and  C_7
REMARK    7  A    between atoms: N_13  and  C_29
REMARK    8  A    between atoms: C_17  and  C_19
REMARK    9  A    between atoms: C_22  and  C_24
REMARK   10  A    between atoms: C_29  and  C_30
REMARK   11  A    between atoms: C_30  and  C_31
REMARK   12  A    between atoms: C_30  and  C_32
REMARK   13  A    between atoms: C_30  and  O_33
REMARK                            x       y       z     vdW  Elec       q    Type
REMARK                         _______ _______ _______ _____ _____    ______ ____
ROOT
ATOM      1  C   UNL     1       4.876   5.664  21.859  0.00  0.00    -0.031 A 
ATOM      2  C   UNL     1       4.813   6.979  21.328  0.00  0.00    +0.007 A 
ATOM      3  C   UNL     1       5.793   7.440  20.433  0.00  0.00    +0.028 A 
ATOM      4  C   UNL     1       6.824   6.563  20.087  0.00  0.00    +0.070 A 
ATOM      5  N   UNL     1       7.867   6.758  19.259  0.00  0.00    -0.309 N 
ATOM      6  C   UNL     1       8.551   5.578  19.325  0.00  0.00    +0.203 A 
ATOM      7  N   UNL     1       9.744   5.303  18.585  0.00  0.00    -0.251 N 
ATOM      8  H   UNL     1       9.802   4.401  18.059  0.00  0.00    +0.158 HD
ATOM      9  C   UNL     1      10.921   6.120  18.703  0.00  0.00    +0.257 C 
ATOM     10  O   UNL     1      11.043   6.915  19.679  0.00  0.00    -0.269 OA
ATOM     11  N   UNL     1       7.971   4.648  20.125  0.00  0.00    -0.214 NA
ATOM     12  C   UNL     1       6.893   5.297  20.600  0.00  0.00    +0.091 A 
ATOM     13  C   UNL     1       5.934   4.807  21.484  0.00  0.00    +0.034 A 
ENDROOT
BRANCH   9  14
ATOM     14  C   UNL     1      11.988   6.048  17.690  0.00  0.00    +0.075 A 
ATOM     15  S   UNL     1      13.035   4.749  17.453  0.00  0.00    -0.084 S 
ATOM     16  C   UNL     1      13.845   5.408  16.133  0.00  0.00    +0.023 A 
ATOM     17  C   UNL     1      13.299   6.656  15.858  0.00  0.00    +0.017 A 
ATOM     18  C   UNL     1      12.258   7.012  16.726  0.00  0.00    +0.021 A 
BRANCH  16  19
ATOM     19  C   UNL     1      14.939   4.756  15.394  0.00  0.00    +0.026 A 
ATOM     20  C   UNL     1      14.839   3.978  14.255  0.00  0.00    +0.143 A 
ATOM     21  N   UNL     1      16.073   3.584  13.883  0.00  0.00    -0.182 NA
ATOM     22  N   UNL     1      16.941   4.086  14.750  0.00  0.00    -0.284 N 
ATOM     23  H   UNL     1      17.976   3.943  14.699  0.00  0.00    +0.188 HD
ATOM     24  C   UNL     1      16.287   4.803  15.681  0.00  0.00    +0.114 A 
ENDBRANCH  16  19
ENDBRANCH   9  14
BRANCH   1  25
ATOM     25  C   UNL     1       3.793   5.167  22.786  0.00  0.00    +0.116 C 
BRANCH  25  26
ATOM     26  N   UNL     1       2.583   5.999  22.720  0.00  0.00    -0.312 NA
ATOM     27  H   UNL     1       2.225   6.152  23.691  0.00  0.00    +0.122 HD
BRANCH  26  28
ATOM     28  C   UNL     1       1.520   5.384  21.909  0.00  0.00    +0.084 C 
BRANCH  28  30
ATOM     29  C   UNL     1       1.447   7.832  21.185  0.00  0.00    +0.008 C 
ATOM     30  C   UNL     1       0.793   6.445  21.059  0.00  0.00    -0.003 C 
ATOM     31  C   UNL     1       0.702   6.011  19.587  0.00  0.00    +0.008 C 
ENDBRANCH  28  30
ENDBRANCH  26  28
ENDBRANCH  25  26
ENDBRANCH   1  25
BRANCH   5  32
ATOM     32  C   UNL     1       8.102   7.908  18.370  0.00  0.00    +0.159 C 
BRANCH  32  33
ATOM     33  C   UNL     1       7.647   7.629  16.909  0.00  0.00    +0.078 C 
ATOM     34  C   UNL     1       8.812   7.820  15.922  0.00  0.00    +0.043 C 
ATOM     35  C   UNL     1       6.517   8.611  16.527  0.00  0.00    +0.043 C 
BRANCH  33  36
ATOM     36  O   UNL     1       7.184   6.305  16.784  0.00  0.00    -0.387 OA
ATOM     37  H   UNL     1       6.383   6.203  17.355  0.00  0.00    +0.210 HD
ENDBRANCH  33  36
ENDBRANCH  32  33
ENDBRANCH   5  32
TORSDOF 9
ENDMDL
MODEL 5
REMARK VINA RESULT:    -7.788      4.915      6.694
REMARK INTER + INTRA:         -12.700
REMARK INTER:                 -11.767
REMARK INTRA:                  -0.932
REMARK UNBOUND:                -1.042
REMARK  Name = 
REMARK  13 active torsions:
REMARK  status: ('A' for Active; 'I' for Inactive)
REMARK    1  A    between atoms: C_1  and  C_2
REMARK    2  A    between atoms: C_2  and  C_3
REMARK    3  A    between atoms: C_2  and  C_4
REMARK    4  A    between atoms: C_4  and  N_5
REMARK    5  A    between atoms: N_5  and  C_6
REMARK    6  A    between atoms: C_6  and  C_7
REMARK    7  A    between atoms: N_13  and  C_29
REMARK    8  A    between atoms: C_17  and  C_19
REMARK    9  A    between atoms: C_22  and  C_24
REMARK   10  A    between atoms: C_29  and  C_30
REMARK   11  A    between atoms: C_30  and  C_31
REMARK   12  A    between atoms: C_30  and  C_32
REMARK   13  A    between atoms: C_30  and  O_33
REMARK                            x       y       z     vdW  Elec       q    Type
REMARK                         _______ _______ _______ _____ _____    ______ ____
ROOT
ATOM      1  C   UNL     1       2.966   6.653  21.702  0.00  0.00    -0.031 A 
ATOM      2  C   UNL     1       3.951   7.097  20.781  0.00  0.00    +0.007 A 
ATOM      3  C   UNL     1       5.265   6.603  20.840  0.00  0.00    +0.028 A 
ATOM      4  C   UNL     1       5.564   5.666  21.832  0.00  0.00    +0.070 A 
ATOM      5  N   UNL     1       6.729   5.046  22.096  0.00  0.00    -0.309 N 
ATOM      6  C   UNL     1       6.438   4.266  23.178  0.00  0.00    +0.203 A 
ATOM      7  N   UNL     1       7.380   3.396  23.814  0.00  0.00    -0.251 N 
ATOM      8  H   UNL     1       7.086   2.413  24.014  0.00  0.00    +0.158 HD
ATOM      9  C   UNL     1       8.620   3.880  24.356  0.00  0.00    +0.257 C 
ATOM     10  O   UNL     1       8.781   5.117  24.560  0.00  0.00    -0.269 OA
ATOM     11  N   UNL     1       5.145   4.344  23.583  0.00  0.00    -0.214 NA
ATOM     12  C   UNL     1       4.621   5.239  22.725  0.00  0.00    +0.091 A 
ATOM     13  C   UNL     1       3.308   5.703  22.689  0.00  0.00    +0.034 A 
ENDROOT
BRANCH   9  14
ATOM     14  C   UNL     1       9.716   2.945  24.669  0.00  0.00    +0.075 A 
ATOM     15  S   UNL     1       9.651   1.268  24.524  0.00  0.00    -0.084 S 
ATOM     16  C   UNL     1      11.246   0.985  24.981  0.00  0.00    +0.023 A 
ATOM     17  C   UNL     1      11.852   2.207  25.249  0.00  0.00    +0.017 A 
ATOM     18  C   UNL     1      10.998   3.303  25.069  0.00  0.00    +0.021 A 
BRANCH  16  19
ATOM     19  C   UNL     1      11.884  -0.339  25.068  0.00  0.00    +0.026 A 
ATOM     20  C   UNL     1      13.120  -0.645  25.606  0.00  0.00    +0.143 A 
ATOM     21  N   UNL     1      13.327  -1.973  25.507  0.00  0.00    -0.182 NA
ATOM     22  N   UNL     1      12.263  -2.509  24.924  0.00  0.00    -0.284 N 
ATOM     23  H   UNL     1      12.150  -3.530  24.726  0.00  0.00    +0.188 HD
ATOM     24  C   UNL     1      11.367  -1.546  24.644  0.00  0.00    +0.114 A 
ENDBRANCH  16  19
ENDBRANCH   9  14
BRANCH   1  25
ATOM     25  C   UNL     1       1.548   7.160  21.598  0.00  0.00    +0.116 C 
BRANCH  25  26
ATOM     26  N   UNL     1       0.626   6.129  21.100  0.00  0.00    -0.312 NA
ATOM     27  H   UNL     1       0.732   5.270  21.687  0.00  0.00    +0.122 HD
BRANCH  26  28
ATOM     28  C   UNL     1       0.880   5.780  19.692  0.00  0.00    +0.084 C 
BRANCH  28  30
ATOM     29  C   UNL     1       1.460   7.888  18.372  0.00  0.00    +0.008 C 
ATOM     30  C   UNL     1       0.358   6.883  18.749  0.00  0.00    -0.003 C 
ATOM     31  C   UNL     1      -0.292   6.280  17.494  0.00  0.00    +0.008 C 
ENDBRANCH  28  30
ENDBRANCH  26  28
ENDBRANCH  25  26
ENDBRANCH   1  25
BRANCH   5  32
ATOM     32  C   UNL     1       7.963   5.078  21.292  0.00  0.00    +0.159 C 
BRANCH  32  33
ATOM     33  C   UNL     1       8.770   6.392  21.499  0.00  0.00    +0.078 C 
ATOM     34  C   UNL     1       8.591   7.343  20.303  0.00  0.00    +0.043 C 
ATOM     35  C   UNL     1      10.271   6.056  21.636  0.00  0.00    +0.043 C 
BRANCH  33  36
ATOM     36  O   UNL     1       8.328   7.061  22.656  0.00  0.00    -0.387 OA
ATOM     37  H   UNL     1       7.534   7.600  22.417  0.00  0.00    +0.210 HD
ENDBRANCH  33  36
ENDBRANCH  32  33
ENDBRANCH   5  32
TORSDOF 9
ENDMDL
MODEL 6
REMARK VINA RESULT:    -7.663      3.333      3.715
REMARK INTER + INTRA:         -12.512
REMARK INTER:                 -11.586
REMARK INTRA:                  -0.926
REMARK UNBOUND:                -1.042
REMARK  Name = 
REMARK  13 active torsions:
REMARK  status: ('A' for Active; 'I' for Inactive)
REMARK    1  A    between atoms: C_1  and  C_2
REMARK    2  A    between atoms: C_2  and  C_3
REMARK    3  A    between atoms: C_2  and  C_4
REMARK    4  A    between atoms: C_4  and  N_5
REMARK    5  A    between atoms: N_5  and  C_6
REMARK    6  A    between atoms: C_6  and  C_7
REMARK    7  A    between atoms: N_13  and  C_29
REMARK    8  A    between atoms: C_17  and  C_19
REMARK    9  A    between atoms: C_22  and  C_24
REMARK   10  A    between atoms: C_29  and  C_30
REMARK   11  A    between atoms: C_30  and  C_31
REMARK   12  A    between atoms: C_30  and  C_32
REMARK   13  A    between atoms: C_30  and  O_33
REMARK                            x       y       z     vdW  Elec       q    Type
REMARK                         _______ _______ _______ _____ _____    ______ ____
ROOT
ATOM      1  C   UNL     1       2.490  10.921  17.021  0.00  0.00    -0.031 A 
ATOM      2  C   UNL     1       1.508  10.422  17.918  0.00  0.00    +0.007 A 
ATOM      3  C   UNL     1       1.865   9.552  18.962  0.00  0.00    +0.028 A 
ATOM      4  C   UNL     1       3.210   9.198  19.083  0.00  0.00    +0.070 A 
ATOM      5  N   UNL     1       3.802   8.393  19.986  0.00  0.00    -0.309 N 
ATOM      6  C   UNL     1       5.113   8.398  19.606  0.00  0.00    +0.203 A 
ATOM      7  N   UNL     1       6.147   7.686  20.293  0.00  0.00    -0.251 N 
ATOM      8  H   UNL     1       7.028   8.199  20.527  0.00  0.00    +0.158 HD
ATOM      9  C   UNL     1       6.093   6.263  20.488  0.00  0.00    +0.257 C 
ATOM     10  O   UNL     1       5.295   5.561  19.804  0.00  0.00    -0.269 OA
ATOM     11  N   UNL     1       5.375   9.188  18.534  0.00  0.00    -0.214 NA
ATOM     12  C   UNL     1       4.159   9.670  18.219  0.00  0.00    +0.091 A 
ATOM     13  C   UNL     1       3.840  10.540  17.179  0.00  0.00    +0.034 A 
ENDROOT
BRANCH   9  14
ATOM     14  C   UNL     1       6.956   5.611  21.489  0.00  0.00    +0.075 A 
ATOM     15  S   UNL     1       7.926   6.401  22.618  0.00  0.00    -0.084 S 
ATOM     16  C   UNL     1       8.488   5.009  23.379  0.00  0.00    +0.023 A 
ATOM     17  C   UNL     1       7.916   3.905  22.759  0.00  0.00    +0.017 A 
ATOM     18  C   UNL     1       7.056   4.241  21.706  0.00  0.00    +0.021 A 
BRANCH  16  19
ATOM     19  C   UNL     1       9.421   4.980  24.518  0.00  0.00    +0.026 A 
ATOM     20  C   UNL     1      10.605   5.682  24.655  0.00  0.00    +0.143 A 
ATOM     21  N   UNL     1      11.152   5.391  25.852  0.00  0.00    -0.182 NA
ATOM     22  N   UNL     1      10.353   4.530  26.467  0.00  0.00    -0.284 N 
ATOM     23  H   UNL     1      10.532   4.137  27.420  0.00  0.00    +0.188 HD
ATOM     24  C   UNL     1       9.293   4.259  25.687  0.00  0.00    +0.114 A 
ENDBRANCH  16  19
ENDBRANCH   9  14
BRANCH   1  25
ATOM     25  C   UNL     1       2.099  11.890  15.932  0.00  0.00    +0.116 C 
BRANCH  25  26
ATOM     26  N   UNL     1       3.222  12.743  15.520  0.00  0.00    -0.312 NA
ATOM     27  H   UNL     1       3.293  13.551  16.181  0.00  0.00    +0.122 HD
BRANCH  26  28
ATOM     28  C   UNL     1       3.066  13.258  14.151  0.00  0.00    +0.084 C 
BRANCH  28  30
ATOM     29  C   UNL     1       3.281  15.779  13.799  0.00  0.00    +0.008 C 
ATOM     30  C   UNL     1       2.337  14.617  14.154  0.00  0.00    -0.003 C 
ATOM     31  C   UNL     1       1.116  14.595  13.221  0.00  0.00    +0.008 C 
ENDBRANCH  28  30
ENDBRANCH  26  28
ENDBRANCH  25  26
ENDBRANCH   1  25
BRANCH   5  32
ATOM     32  C   UNL     1       3.196   7.801  21.191  0.00  0.00    +0.159 C 
BRANCH  32  33
ATOM     33  C   UNL     1       2.369   6.524  20.871  0.00  0.00    +0.078 C 
ATOM     34  C   UNL     1       0.859   6.808  20.956  0.00  0.00    +0.043 C 
ATOM     35  C   UNL     1       2.717   5.417  21.891  0.00  0.00    +0.043 C 
BRANCH  33  36
ATOM     36  O   UNL     1       2.652   6.070  19.568  0.00  0.00    -0.387 OA
ATOM     37  H   UNL     1       2.233   5.182  19.453  0.00  0.00    +0.210 HD
ENDBRANCH  33  36
ENDBRANCH  32  33
ENDBRANCH   5  32
TORSDOF 9
ENDMDL
MODEL 7
REMARK VINA RESULT:    -7.624      4.145      5.045
REMARK INTER + INTRA:         -12.454
REMARK INTER:                 -11.508
REMARK INTRA:                  -0.946
REMARK UNBOUND:                -1.042
REMARK  Name = 
REMARK  13 active torsions:
REMARK  status: ('A' for Active; 'I' for Inactive)
REMARK    1  A    between atoms: C_1  and  C_2
REMARK    2  A    between atoms: C_2  and  C_3
REMARK    3  A    between atoms: C_2  and  C_4
REMARK    4  A    between atoms: C_4  and  N_5
REMARK    5  A    between atoms: N_5  and  C_6
REMARK    6  A    between atoms: C_6  and  C_7
REMARK    7  A    between atoms: N_13  and  C_29
REMARK    8  A    between atoms: C_17  and  C_19
REMARK    9  A    between atoms: C_22  and  C_24
REMARK   10  A    between atoms: C_29  and  C_30
REMARK   11  A    between atoms: C_30  and  C_31
REMARK   12  A    between atoms: C_30  and  C_32
REMARK   13  A    between atoms: C_30  and  O_33
REMARK                            x       y       z     vdW  Elec       q    Type
REMARK                         _______ _______ _______ _____ _____    ______ ____
ROOT
ATOM      1  C   UNL     1       1.925   7.417  19.580  0.00  0.00    -0.031 A 
ATOM      2  C   UNL     1       1.322   6.919  20.765  0.00  0.00    +0.007 A 
ATOM      3  C   UNL     1       2.106   6.370  21.794  0.00  0.00    +0.028 A 
ATOM      4  C   UNL     1       3.489   6.331  21.608  0.00  0.00    +0.070 A 
ATOM      5  N   UNL     1       4.447   5.865  22.431  0.00  0.00    -0.309 N 
ATOM      6  C   UNL     1       5.598   6.061  21.724  0.00  0.00    +0.203 A 
ATOM      7  N   UNL     1       6.903   5.730  22.211  0.00  0.00    -0.251 N 
ATOM      8  H   UNL     1       7.657   6.449  22.129  0.00  0.00    +0.158 HD
ATOM      9  C   UNL     1       7.249   4.395  22.618  0.00  0.00    +0.257 C 
ATOM     10  O   UNL     1       6.519   3.421  22.276  0.00  0.00    -0.269 OA
ATOM     11  N   UNL     1       5.411   6.655  20.518  0.00  0.00    -0.214 NA
ATOM     12  C   UNL     1       4.075   6.804  20.466  0.00  0.00    +0.091 A 
ATOM     13  C   UNL     1       3.328   7.361  19.431  0.00  0.00    +0.034 A 
ENDROOT
BRANCH   9  14
ATOM     14  C   UNL     1       8.446   4.150  23.441  0.00  0.00    +0.075 A 
ATOM     15  S   UNL     1       8.487   3.285  24.886  0.00  0.00    -0.084 S 
ATOM     16  C   UNL     1      10.149   3.406  25.123  0.00  0.00    +0.023 A 
ATOM     17  C   UNL     1      10.694   4.124  24.065  0.00  0.00    +0.017 A 
ATOM     18  C   UNL     1       9.743   4.536  23.123  0.00  0.00    +0.021 A 
BRANCH  16  19
ATOM     19  C   UNL     1      10.891   2.832  26.258  0.00  0.00    +0.026 A 
ATOM     20  C   UNL     1      11.126   1.495  26.521  0.00  0.00    +0.143 A 
ATOM     21  N   UNL     1      11.859   1.391  27.648  0.00  0.00    -0.182 NA
ATOM     22  N   UNL     1      12.087   2.616  28.100  0.00  0.00    -0.284 N 
ATOM     23  H   UNL     1      12.639   2.833  28.962  0.00  0.00    +0.188 HD
ATOM     24  C   UNL     1      11.515   3.516  27.281  0.00  0.00    +0.114 A 
ENDBRANCH  16  19
ENDBRANCH   9  14
BRANCH   1  25
ATOM     25  C   UNL     1       1.074   8.045  18.502  0.00  0.00    +0.116 C 
BRANCH  25  26
ATOM     26  N   UNL     1       1.806   9.069  17.745  0.00  0.00    -0.312 NA
ATOM     27  H   UNL     1       2.829   8.852  17.785  0.00  0.00    +0.122 HD
BRANCH  26  28
ATOM     28  C   UNL     1       1.585  10.425  18.273  0.00  0.00    +0.084 C 
BRANCH  28  30
ATOM     29  C   UNL     1       0.191  12.534  17.908  0.00  0.00    +0.008 C 
ATOM     30  C   UNL     1       0.829  11.298  17.250  0.00  0.00    -0.003 C 
ATOM     31  C   UNL     1       1.743  11.704  16.084  0.00  0.00    +0.008 C 
ENDBRANCH  28  30
ENDBRANCH  26  28
ENDBRANCH  25  26
ENDBRANCH   1  25
BRANCH   5  32
ATOM     32  C   UNL     1       4.290   5.416  23.825  0.00  0.00    +0.159 C 
BRANCH  32  33
ATOM     33  C   UNL     1       3.755   3.960  23.922  0.00  0.00    +0.078 C 
ATOM     34  C   UNL     1       2.281   3.941  24.364  0.00  0.00    +0.043 C 
ATOM     35  C   UNL     1       4.587   3.175  24.961  0.00  0.00    +0.043 C 
BRANCH  33  36
ATOM     36  O   UNL     1       3.841   3.321  22.669  0.00  0.00    -0.387 OA
ATOM     37  H   UNL     1       4.730   2.893  22.602  0.00  0.00    +0.210 HD
ENDBRANCH  33  36
ENDBRANCH  32  33
ENDBRANCH   5  32
TORSDOF 9
ENDMDL
MODEL 8
REMARK VINA RESULT:    -7.390      4.736      8.613
REMARK INTER + INTRA:         -12.104
REMARK INTER:                 -11.124
REMARK INTRA:                  -0.980
REMARK UNBOUND:                -1.042
REMARK  Name = 
REMARK  13 active torsions:
REMARK  status: ('A' for Active; 'I' for Inactive)
REMARK    1  A    between atoms: C_1  and  C_2
REMARK    2  A    between atoms: C_2  and  C_3
REMARK    3  A    between atoms: C_2  and  C_4
REMARK    4  A    between atoms: C_4  and  N_5
REMARK    5  A    between atoms: N_5  and  C_6
REMARK    6  A    between atoms: C_6  and  C_7
REMARK    7  A    between atoms: N_13  and  C_29
REMARK    8  A    between atoms: C_17  and  C_19
REMARK    9  A    between atoms: C_22  and  C_24
REMARK   10  A    between atoms: C_29  and  C_30
REMARK   11  A    between atoms: C_30  and  C_31
REMARK   12  A    between atoms: C_30  and  C_32
REMARK   13  A    between atoms: C_30  and  O_33
REMARK                            x       y       z     vdW  Elec       q    Type
REMARK                         _______ _______ _______ _____ _____    ______ ____
ROOT
ATOM      1  C   UNL     1      11.619   8.577  15.253  0.00  0.00    -0.031 A 
ATOM      2  C   UNL     1      12.284   7.670  16.121  0.00  0.00    +0.007 A 
ATOM      3  C   UNL     1      11.576   6.984  17.122  0.00  0.00    +0.028 A 
ATOM      4  C   UNL     1      10.205   7.225  17.231  0.00  0.00    +0.070 A 
ATOM      5  N   UNL     1       9.313   6.700  18.092  0.00  0.00    -0.309 N 
ATOM      6  C   UNL     1       8.141   7.313  17.751  0.00  0.00    +0.203 A 
ATOM      7  N   UNL     1       6.887   7.053  18.390  0.00  0.00    -0.251 N 
ATOM      8  H   UNL     1       6.055   6.868  17.786  0.00  0.00    +0.158 HD
ATOM      9  C   UNL     1       6.700   7.235  19.803  0.00  0.00    +0.257 C 
ATOM     10  O   UNL     1       7.534   7.912  20.470  0.00  0.00    -0.269 OA
ATOM     11  N   UNL     1       8.250   8.167  16.702  0.00  0.00    -0.214 NA
ATOM     12  C   UNL     1       9.560   8.101  16.402  0.00  0.00    +0.091 A 
ATOM     13  C   UNL     1      10.231   8.791  15.395  0.00  0.00    +0.034 A 
ENDROOT
BRANCH   9  14
ATOM     14  C   UNL     1       5.545   6.629  20.490  0.00  0.00    +0.075 A 
ATOM     15  S   UNL     1       5.619   5.606  21.826  0.00  0.00    -0.084 S 
ATOM     16  C   UNL     1       3.955   5.439  22.018  0.00  0.00    +0.023 A 
ATOM     17  C   UNL     1       3.320   6.191  21.038  0.00  0.00    +0.017 A 
ATOM     18  C   UNL     1       4.208   6.860  20.186  0.00  0.00    +0.021 A 
BRANCH  16  19
ATOM     19  C   UNL     1       3.296   4.637  23.063  0.00  0.00    +0.026 A 
ATOM     20  C   UNL     1       1.971   4.247  23.114  0.00  0.00    +0.143 A 
ATOM     21  N   UNL     1       1.772   3.509  24.225  0.00  0.00    -0.182 NA
ATOM     22  N   UNL     1       2.927   3.426  24.871  0.00  0.00    -0.284 N 
ATOM     23  H   UNL     1       3.065   2.905  25.767  0.00  0.00    +0.188 HD
ATOM     24  C   UNL     1       3.874   4.099  24.194  0.00  0.00    +0.114 A 
ENDBRANCH  16  19
ENDBRANCH   9  14
BRANCH   1  25
ATOM     25  C   UNL     1      12.384   9.274  14.154  0.00  0.00    +0.116 C 
BRANCH  25  26
ATOM     26  N   UNL     1      12.092   8.706  12.830  0.00  0.00    -0.312 NA
ATOM     27  H   UNL     1      11.991   7.669  12.922  0.00  0.00    +0.122 HD
BRANCH  26  28
ATOM     28  C   UNL     1      13.148   8.998  11.847  0.00  0.00    +0.084 C 
BRANCH  28  30
ATOM     29  C   UNL     1      11.206  10.129  10.633  0.00  0.00    +0.008 C 
ATOM     30  C   UNL     1      12.721  10.140  10.903  0.00  0.00    -0.003 C 
ATOM     31  C   UNL     1      13.175  11.505  11.441  0.00  0.00    +0.008 C 
ENDBRANCH  28  30
ENDBRANCH  26  28
ENDBRANCH  25  26
ENDBRANCH   1  25
BRANCH   5  32
ATOM     32  C   UNL     1       9.531   5.601  19.048  0.00  0.00    +0.159 C 
BRANCH  32  33
ATOM     33  C   UNL     1      10.266   6.072  20.335  0.00  0.00    +0.078 C 
ATOM     34  C   UNL     1      11.735   5.617  20.329  0.00  0.00    +0.043 C 
ATOM     35  C   UNL     1       9.571   5.466  21.574  0.00  0.00    +0.043 C 
BRANCH  33  36
ATOM     36  O   UNL     1      10.246   7.478  20.423  0.00  0.00    -0.387 OA
ATOM     37  H   UNL     1      11.160   7.810  20.241  0.00  0.00    +0.210 HD
ENDBRANCH  33  36
ENDBRANCH  32  33
ENDBRANCH   5  32
TORSDOF 9
ENDMDL
MODEL 9
REMARK VINA RESULT:    -7.382      4.185      6.281
REMARK INTER + INTRA:         -12.091
REMARK INTER:                 -10.930
REMARK INTRA:                  -1.161
REMARK UNBOUND:                -1.042
REMARK  Name = 
REMARK  13 active torsions:
REMARK  status: ('A' for Active; 'I' for Inactive)
REMARK    1  A    between atoms: C_1  and  C_2
REMARK    2  A    between atoms: C_2  and  C_3
REMARK    3  A    between atoms: C_2  and  C_4
REMARK    4  A    between atoms: C_4  and  N_5
REMARK    5  A    between atoms: N_5  and  C_6
REMARK    6  A    between atoms: C_6  and  C_7
REMARK    7  A    between atoms: N_13  and  C_29
REMARK    8  A    between atoms: C_17  and  C_19
REMARK    9  A    between atoms: C_22  and  C_24
REMARK   10  A    between atoms: C_29  and  C_30
REMARK   11  A    between atoms: C_30  and  C_31
REMARK   12  A    between atoms: C_30  and  C_32
REMARK   13  A    between atoms: C_30  and  O_33
REMARK                            x       y       z     vdW  Elec       q    Type
REMARK                         _______ _______ _______ _____ _____    ______ ____
ROOT
ATOM      1  C   UNL     1       3.970   6.053  21.668  0.00  0.00    -0.031 A 
ATOM      2  C   UNL     1       4.870   4.958  21.751  0.00  0.00    +0.007 A 
ATOM      3  C   UNL     1       6.086   4.972  21.047  0.00  0.00    +0.028 A 
ATOM      4  C   UNL     1       6.374   6.095  20.268  0.00  0.00    +0.070 A 
ATOM      5  N   UNL     1       7.457   6.353  19.511  0.00  0.00    -0.309 N 
ATOM      6  C   UNL     1       7.183   7.575  18.968  0.00  0.00    +0.203 A 
ATOM      7  N   UNL     1       8.070   8.278  18.092  0.00  0.00    -0.251 N 
ATOM      8  H   UNL     1       8.266   9.285  18.292  0.00  0.00    +0.158 HD
ATOM      9  C   UNL     1       8.531   7.707  16.855  0.00  0.00    +0.257 C 
ATOM     10  O   UNL     1       7.937   6.708  16.360  0.00  0.00    -0.269 OA
ATOM     11  N   UNL     1       6.001   8.106  19.372  0.00  0.00    -0.214 NA
ATOM     12  C   UNL     1       5.509   7.150  20.180  0.00  0.00    +0.091 A 
ATOM     13  C   UNL     1       4.300   7.171  20.871  0.00  0.00    +0.034 A 
ENDROOT
BRANCH   9  14
ATOM     14  C   UNL     1       9.701   8.273  16.160  0.00  0.00    +0.075 A 
ATOM     15  S   UNL     1       9.828   8.537  14.501  0.00  0.00    -0.084 S 
ATOM     16  C   UNL     1      11.359   9.234  14.545  0.00  0.00    +0.023 A 
ATOM     17  C   UNL     1      11.789   9.273  15.866  0.00  0.00    +0.017 A 
ATOM     18  C   UNL     1      10.860   8.740  16.770  0.00  0.00    +0.021 A 
BRANCH  16  19
ATOM     19  C   UNL     1      12.103   9.727  13.374  0.00  0.00    +0.026 A 
ATOM     20  C   UNL     1      12.268  11.040  12.972  0.00  0.00    +0.143 A 
ATOM     21  N   UNL     1      13.031  11.067  11.861  0.00  0.00    -0.182 NA
ATOM     22  N   UNL     1      13.346   9.816  11.552  0.00  0.00    -0.284 N 
ATOM     23  H   UNL     1      13.939   9.542  10.735  0.00  0.00    +0.188 HD
ATOM     24  C   UNL     1      12.801   8.977  12.449  0.00  0.00    +0.114 A 
ENDBRANCH  16  19
ENDBRANCH   9  14
BRANCH   1  25
ATOM     25  C   UNL     1       2.688   6.042  22.465  0.00  0.00    +0.116 C 
BRANCH  25  26
ATOM     26  N   UNL     1       1.644   6.871  21.846  0.00  0.00    -0.312 NA
ATOM     27  H   UNL     1       1.085   7.330  22.601  0.00  0.00    +0.122 HD
BRANCH  26  28
ATOM     28  C   UNL     1       0.739   6.089  20.989  0.00  0.00    +0.084 C 
BRANCH  28  30
ATOM     29  C   UNL     1      -0.125   5.847  18.597  0.00  0.00    +0.008 C 
ATOM     30  C   UNL     1       1.003   6.381  19.498  0.00  0.00    -0.003 C 
ATOM     31  C   UNL     1       1.236   7.881  19.258  0.00  0.00    +0.008 C 
ENDBRANCH  28  30
ENDBRANCH  26  28
ENDBRANCH  25  26
ENDBRANCH   1  25
BRANCH   5  32
ATOM     32  C   UNL     1       8.705   5.573  19.438  0.00  0.00    +0.159 C 
BRANCH  32  33
ATOM     33  C   UNL     1       9.798   6.114  20.402  0.00  0.00    +0.078 C 
ATOM     34  C   UNL     1      11.204   5.923  19.806  0.00  0.00    +0.043 C 
ATOM     35  C   UNL     1       9.727   5.347  21.741  0.00  0.00    +0.043 C 
BRANCH  33  36
ATOM     36  O   UNL     1       9.609   7.490  20.636  0.00  0.00    -0.387 OA
ATOM     37  H   UNL     1       9.405   7.924  19.771  0.00  0.00    +0.210 HD
ENDBRANCH  33  36
ENDBRANCH  32  33
ENDBRANCH   5  32
TORSDOF 9
ENDMDL
