MODEL 1
REMARK VINA RESULT:    -9.257      0.000      0.000
REMARK INTER + INTRA:         -15.040
REMARK INTER:                 -13.857
REMARK INTRA:                  -1.183
REMARK UNBOUND:                -1.183
REMARK  Name = 
REMARK  11 active torsions:
REMARK  status: ('A' for Active; 'I' for Inactive)
REMARK    1  A    between atoms: C_1  and  C_2
REMARK    2  A    between atoms: C_2  and  C_3
REMARK    3  A    between atoms: C_2  and  C_4
REMARK    4  A    between atoms: C_2  and  O_36
REMARK    5  A    between atoms: C_4  and  N_5
REMARK    6  A    between atoms: C_9  and  C_12
REMARK    7  A    between atoms: C_12  and  N_13
REMARK    8  A    between atoms: N_13  and  C_14
REMARK    9  A    between atoms: C_14  and  C_15
REMARK   10  A    between atoms: C_24  and  C_26
REMARK   11  A    between atoms: C_29  and  C_31
REMARK                            x       y       z     vdW  Elec       q    Type
REMARK                         _______ _______ _______ _____ _____    ______ ____
ROOT
ATOM      1  N   UNL     1       7.643   6.598  19.377  0.00  0.00    -0.309 N 
ATOM      2  C   UNL     1       8.238   5.391  19.585  0.00  0.00    +0.203 A 
ATOM      3  N   UNL     1       9.437   4.965  18.931  0.00  0.00    -0.251 N 
ATOM      4  H   UNL     1       9.447   4.006  18.520  0.00  0.00    +0.158 HD
ATOM      5  C   UNL     1      10.681   5.659  19.100  0.00  0.00    +0.257 C 
ATOM      6  O   UNL     1      10.767   6.605  19.931  0.00  0.00    -0.269 OA
ATOM      7  N   UNL     1       7.579   4.597  20.467  0.00  0.00    -0.214 NA
ATOM      8  C   UNL     1       6.539   5.364  20.838  0.00  0.00    +0.091 A 
ATOM      9  C   UNL     1       5.534   5.041  21.744  0.00  0.00    +0.034 A 
ATOM     10  C   UNL     1       4.530   6.004  21.992  0.00  0.00    -0.031 A 
ATOM     11  C   UNL     1       4.563   7.248  21.311  0.00  0.00    +0.007 A 
ATOM     12  C   UNL     1       5.590   7.538  20.396  0.00  0.00    +0.028 A 
ATOM     13  C   UNL     1       6.571   6.566  20.190  0.00  0.00    +0.070 A 
ENDROOT
BRANCH   5  14
ATOM     14  C   UNL     1      11.871   5.265  18.328  0.00  0.00    +0.075 A 
ATOM     15  S   UNL     1      12.450   6.031  16.946  0.00  0.00    -0.084 S 
ATOM     16  C   UNL     1      13.764   5.006  16.709  0.00  0.00    +0.023 A 
ATOM     17  C   UNL     1      13.769   4.050  17.722  0.00  0.00    +0.017 A 
ATOM     18  C   UNL     1      12.713   4.198  18.629  0.00  0.00    +0.021 A 
BRANCH  16  19
ATOM     19  C   UNL     1      14.724   5.097  15.599  0.00  0.00    +0.026 A 
ATOM     20  C   UNL     1      14.725   4.361  14.430  0.00  0.00    +0.143 A 
ATOM     21  N   UNL     1      15.789   4.717  13.683  0.00  0.00    -0.182 NA
ATOM     22  N   UNL     1      16.453   5.651  14.345  0.00  0.00    -0.284 N 
ATOM     23  H   UNL     1      17.327   6.106  14.001  0.00  0.00    +0.188 HD
ATOM     24  C   UNL     1      15.836   5.908  15.512  0.00  0.00    +0.114 A 
ENDBRANCH  16  19
ENDBRANCH   5  14
BRANCH   1  25
ATOM     25  C   UNL     1       8.003   7.645  18.410  0.00  0.00    +0.159 C 
BRANCH  25  27
ATOM     26  C   UNL     1       6.706   8.349  16.381  0.00  0.00    +0.043 C 
ATOM     27  C   UNL     1       7.635   7.265  16.951  0.00  0.00    +0.078 C 
ATOM     28  C   UNL     1       8.892   7.178  16.056  0.00  0.00    +0.043 C 
BRANCH  27  29
ATOM     29  O   UNL     1       6.927   6.047  16.926  0.00  0.00    -0.387 OA
ATOM     30  H   UNL     1       7.308   5.478  16.207  0.00  0.00    +0.210 HD
ENDBRANCH  27  29
ENDBRANCH  25  27
ENDBRANCH   1  25
BRANCH  10  31
ATOM     31  C   UNL     1       3.416   5.689  22.955  0.00  0.00    +0.116 C 
BRANCH  31  32
ATOM     32  N   UNL     1       2.167   5.419  22.228  0.00  0.00    -0.308 NA
ATOM     33  H   UNL     1       1.575   4.777  22.805  0.00  0.00    +0.123 HD
BRANCH  32  34
ATOM     34  C   UNL     1       1.406   6.645  21.928  0.00  0.00    +0.116 C 
BRANCH  34  35
ATOM     35  C   UNL     1       1.043   6.749  20.465  0.00  0.00    -0.034 A 
ATOM     36  C   UNL     1       0.311   5.721  19.845  0.00  0.00    +0.005 A 
ATOM     37  C   UNL     1      -0.037   5.818  18.494  0.00  0.00    +0.000 A 
ATOM     38  C   UNL     1       0.342   6.941  17.753  0.00  0.00    +0.000 A 
ATOM     39  C   UNL     1       1.069   7.968  18.362  0.00  0.00    +0.000 A 
ATOM     40  C   UNL     1       1.420   7.874  19.712  0.00  0.00    +0.005 A 
ENDBRANCH  34  35
ENDBRANCH  32  34
ENDBRANCH  31  32
ENDBRANCH  10  31
TORSDOF 9
ENDMDL
MODEL 2
REMARK VINA RESULT:    -8.961      4.072      6.139
REMARK INTER + INTRA:         -14.596
REMARK INTER:                 -13.209
REMARK INTRA:                  -1.387
REMARK UNBOUND:                -1.183
REMARK  Name = 
REMARK  11 active torsions:
REMARK  status: ('A' for Active; 'I' for Inactive)
REMARK    1  A    between atoms: C_1  and  C_2
REMARK    2  A    between atoms: C_2  and  C_3
REMARK    3  A    between atoms: C_2  and  C_4
REMARK    4  A    between atoms: C_2  and  O_36
REMARK    5  A    between atoms: C_4  and  N_5
REMARK    6  A    between atoms: C_9  and  C_12
REMARK    7  A    between atoms: C_12  and  N_13
REMARK    8  A    between atoms: N_13  and  C_14
REMARK    9  A    between atoms: C_14  and  C_15
REMARK   10  A    between atoms: C_24  and  C_26
REMARK   11  A    between atoms: C_29  and  C_31
REMARK                            x       y       z     vdW  Elec       q    Type
REMARK                         _______ _______ _______ _____ _____    ______ ____
ROOT
ATOM      1  N   UNL     1       5.148   8.828  18.965  0.00  0.00    -0.309 N 
ATOM      2  C   UNL     1       5.927   9.179  17.904  0.00  0.00    +0.203 A 
ATOM      3  N   UNL     1       7.279   8.750  17.725  0.00  0.00    -0.251 N 
ATOM      4  H   UNL     1       7.984   9.474  17.465  0.00  0.00    +0.158 HD
ATOM      5  C   UNL     1       7.623   7.365  17.578  0.00  0.00    +0.257 C 
ATOM      6  O   UNL     1       6.712   6.495  17.487  0.00  0.00    -0.269 OA
ATOM      7  N   UNL     1       5.310  10.003  17.019  0.00  0.00    -0.214 NA
ATOM      8  C   UNL     1       4.083  10.146  17.551  0.00  0.00    +0.091 A 
ATOM      9  C   UNL     1       3.025  10.892  17.040  0.00  0.00    +0.034 A 
ATOM     10  C   UNL     1       1.812  10.904  17.764  0.00  0.00    -0.031 A 
ATOM     11  C   UNL     1       1.710  10.179  18.979  0.00  0.00    +0.007 A 
ATOM     12  C   UNL     1       2.802   9.441  19.468  0.00  0.00    +0.028 A 
ATOM     13  C   UNL     1       3.978   9.444  18.717  0.00  0.00    +0.070 A 
ENDROOT
BRANCH   5  14
ATOM     14  C   UNL     1       9.031   6.945  17.507  0.00  0.00    +0.075 A 
ATOM     15  S   UNL     1       9.738   5.705  18.400  0.00  0.00    -0.084 S 
ATOM     16  C   UNL     1      11.283   5.877  17.754  0.00  0.00    +0.023 A 
ATOM     17  C   UNL     1      11.261   6.909  16.818  0.00  0.00    +0.017 A 
ATOM     18  C   UNL     1      10.001   7.502  16.678  0.00  0.00    +0.021 A 
BRANCH  16  19
ATOM     19  C   UNL     1      12.459   5.083  18.140  0.00  0.00    +0.026 A 
ATOM     20  C   UNL     1      13.161   4.188  17.354  0.00  0.00    +0.143 A 
ATOM     21  N   UNL     1      14.152   3.639  18.085  0.00  0.00    -0.182 NA
ATOM     22  N   UNL     1      14.094   4.161  19.300  0.00  0.00    -0.284 N 
ATOM     23  H   UNL     1      14.744   3.910  20.078  0.00  0.00    +0.188 HD
ATOM     24  C   UNL     1      13.080   5.041  19.371  0.00  0.00    +0.114 A 
ENDBRANCH  16  19
ENDBRANCH   5  14
BRANCH   1  25
ATOM     25  C   UNL     1       5.521   8.062  20.164  0.00  0.00    +0.159 C 
BRANCH  25  27
ATOM     26  C   UNL     1       5.881   5.627  20.647  0.00  0.00    +0.043 C 
ATOM     27  C   UNL     1       4.837   6.670  20.222  0.00  0.00    +0.078 C 
ATOM     28  C   UNL     1       3.682   6.652  21.248  0.00  0.00    +0.043 C 
BRANCH  27  29
ATOM     29  O   UNL     1       4.367   6.302  18.945  0.00  0.00    -0.387 OA
ATOM     30  H   UNL     1       4.111   7.127  18.456  0.00  0.00    +0.210 HD
ENDBRANCH  27  29
ENDBRANCH  25  27
ENDBRANCH   1  25
BRANCH  10  31
ATOM     31  C   UNL     1       0.647  11.710  17.255  0.00  0.00    +0.116 C 
BRANCH  31  32
ATOM     32  N   UNL     1       0.956  13.147  17.299  0.00  0.00    -0.308 NA
ATOM     33  H   UNL     1       1.961  13.266  17.568  0.00  0.00    +0.123 HD
BRANCH  32  34
ATOM     34  C   UNL     1       0.712  13.821  16.012  0.00  0.00    +0.116 C 
BRANCH  34  35
ATOM     35  C   UNL     1       1.896  13.717  15.079  0.00  0.00    -0.034 A 
ATOM     36  C   UNL     1       2.986  14.594  15.222  0.00  0.00    +0.005 A 
ATOM     37  C   UNL     1       4.089  14.493  14.368  0.00  0.00    +0.000 A 
ATOM     38  C   UNL     1       4.112  13.518  13.367  0.00  0.00    +0.000 A 
ATOM     39  C   UNL     1       3.033  12.641  13.219  0.00  0.00    +0.000 A 
ATOM     40  C   UNL     1       1.928  12.740  14.070  0.00  0.00    +0.005 A 
ENDBRANCH  34  35
ENDBRANCH  32  34
ENDBRANCH  31  32
ENDBRANCH  10  31
TORSDOF 9
ENDMDL
MODEL 3
REMARK VINA RESULT:    -8.946      3.186      4.524
REMARK INTER + INTRA:         -14.574
REMARK INTER:                 -13.283
REMARK INTRA:                  -1.292
REMARK UNBOUND:                -1.183
REMARK  Name = 
REMARK  11 active torsions:
REMARK  status: ('A' for Active; 'I' for Inactive)
REMARK    1  A    between atoms: C_1  and  C_2
REMARK    2  A    between atoms: C_2  and  C_3
REMARK    3  A    between atoms: C_2  and  C_4
REMARK    4  A    between atoms: C_2  and  O_36
REMARK    5  A    between atoms: C_4  and  N_5
REMARK    6  A    between atoms: C_9  and  C_12
REMARK    7  A    between atoms: C_12  and  N_13
REMARK    8  A    between atoms: N_13  and  C_14
REMARK    9  A    between atoms: C_14  and  C_15
REMARK   10  A    between atoms: C_24  and  C_26
REMARK   11  A    between atoms: C_29  and  C_31
REMARK                            x       y       z     vdW  Elec       q    Type
REMARK                         _______ _______ _______ _____ _____    ______ ____
ROOT
ATOM      1  N   UNL     1       7.852   5.930  20.212  0.00  0.00    -0.309 N 
ATOM      2  C   UNL     1       7.426   7.139  19.754  0.00  0.00    +0.203 A 
ATOM      3  N   UNL     1       8.215   8.013  18.942  0.00  0.00    -0.251 N 
ATOM      4  H   UNL     1       8.252   9.020  19.214  0.00  0.00    +0.158 HD
ATOM      5  C   UNL     1       8.673   7.629  17.638  0.00  0.00    +0.257 C 
ATOM      6  O   UNL     1       8.286   6.541  17.129  0.00  0.00    -0.269 OA
ATOM      7  N   UNL     1       6.170   7.467  20.154  0.00  0.00    -0.214 NA
ATOM      8  C   UNL     1       5.798   6.394  20.875  0.00  0.00    +0.091 A 
ATOM      9  C   UNL     1       4.582   6.193  21.520  0.00  0.00    +0.034 A 
ATOM     10  C   UNL     1       4.398   4.982  22.224  0.00  0.00    -0.031 A 
ATOM     11  C   UNL     1       5.444   4.026  22.268  0.00  0.00    +0.007 A 
ATOM     12  C   UNL     1       6.663   4.266  21.609  0.00  0.00    +0.028 A 
ATOM     13  C   UNL     1       6.801   5.468  20.913  0.00  0.00    +0.070 A 
ENDROOT
BRANCH   5  14
ATOM     14  C   UNL     1       9.575   8.505  16.873  0.00  0.00    +0.075 A 
ATOM     15  S   UNL     1      10.305   9.911  17.443  0.00  0.00    -0.084 S 
ATOM     16  C   UNL     1      11.122  10.279  16.018  0.00  0.00    +0.023 A 
ATOM     17  C   UNL     1      10.838   9.295  15.075  0.00  0.00    +0.017 A 
ATOM     18  C   UNL     1       9.976   8.301  15.555  0.00  0.00    +0.021 A 
BRANCH  16  19
ATOM     19  C   UNL     1      11.971  11.461  15.806  0.00  0.00    +0.026 A 
ATOM     20  C   UNL     1      12.915  11.980  16.672  0.00  0.00    +0.143 A 
ATOM     21  N   UNL     1      13.455  13.089  16.126  0.00  0.00    -0.182 NA
ATOM     22  N   UNL     1      12.879  13.281  14.950  0.00  0.00    -0.284 N 
ATOM     23  H   UNL     1      13.103  14.074  14.309  0.00  0.00    +0.188 HD
ATOM     24  C   UNL     1      11.974  12.313  14.721  0.00  0.00    +0.114 A 
ENDBRANCH  16  19
ENDBRANCH   5  14
BRANCH   1  25
ATOM     25  C   UNL     1       9.183   5.317  20.084  0.00  0.00    +0.159 C 
BRANCH  25  27
ATOM     26  C   UNL     1      10.182   5.067  22.371  0.00  0.00    +0.043 C 
ATOM     27  C   UNL     1      10.213   5.906  21.085  0.00  0.00    +0.078 C 
ATOM     28  C   UNL     1      11.646   5.866  20.508  0.00  0.00    +0.043 C 
BRANCH  27  29
ATOM     29  O   UNL     1       9.859   7.225  21.432  0.00  0.00    -0.387 OA
ATOM     30  H   UNL     1       8.869   7.302  21.402  0.00  0.00    +0.210 HD
ENDBRANCH  27  29
ENDBRANCH  25  27
ENDBRANCH   1  25
BRANCH  10  31
ATOM     31  C   UNL     1       3.102   4.730  22.948  0.00  0.00    +0.116 C 
BRANCH  31  32
ATOM     32  N   UNL     1       2.148   5.819  22.691  0.00  0.00    -0.308 NA
ATOM     33  H   UNL     1       2.653   6.602  22.214  0.00  0.00    +0.123 HD
BRANCH  32  34
ATOM     34  C   UNL     1       1.010   5.394  21.858  0.00  0.00    +0.116 C 
BRANCH  34  35
ATOM     35  C   UNL     1       0.920   6.180  20.569  0.00  0.00    -0.034 A 
ATOM     36  C   UNL     1       1.480   7.466  20.488  0.00  0.00    +0.005 A 
ATOM     37  C   UNL     1       1.410   8.192  19.294  0.00  0.00    +0.000 A 
ATOM     38  C   UNL     1       0.781   7.639  18.176  0.00  0.00    +0.000 A 
ATOM     39  C   UNL     1       0.222   6.359  18.248  0.00  0.00    +0.000 A 
ATOM     40  C   UNL     1       0.289   5.631  19.440  0.00  0.00    +0.005 A 
ENDBRANCH  34  35
ENDBRANCH  32  34
ENDBRANCH  31  32
ENDBRANCH  10  31
TORSDOF 9
ENDMDL
MODEL 4
REMARK VINA RESULT:    -8.752      5.256      7.931
REMARK INTER + INTRA:         -14.284
REMARK INTER:                 -13.455
REMARK INTRA:                  -0.829
REMARK UNBOUND:                -1.183
REMARK  Name = 
REMARK  11 active torsions:
REMARK  status: ('A' for Active; 'I' for Inactive)
REMARK    1  A    between atoms: C_1  and  C_2
REMARK    2  A    between atoms: C_2  and  C_3
REMARK    3  A    between atoms: C_2  and  C_4
REMARK    4  A    between atoms: C_2  and  O_36
REMARK    5  A    between atoms: C_4  and  N_5
REMARK    6  A    between atoms: C_9  and  C_12
REMARK    7  A    between atoms: C_12  and  N_13
REMARK    8  A    between atoms: N_13  and  C_14
REMARK    9  A    between atoms: C_14  and  C_15
REMARK   10  A    between atoms: C_24  and  C_26
REMARK   11  A    between atoms: C_29  and  C_31
REMARK                            x       y       z     vdW  Elec       q    Type
REMARK                         _______ _______ _______ _____ _____    ______ ____
ROOT
ATOM      1  N   UNL     1       3.307   6.944  20.243  0.00  0.00    -0.309 N 
ATOM      2  C   UNL     1       4.478   7.547  20.587  0.00  0.00    +0.203 A 
ATOM      3  N   UNL     1       5.479   6.943  21.411  0.00  0.00    -0.251 N 
ATOM      4  H   UNL     1       5.876   7.518  22.187  0.00  0.00    +0.158 HD
ATOM      5  C   UNL     1       6.159   5.742  21.021  0.00  0.00    +0.257 C 
ATOM      6  O   UNL     1       5.965   5.251  19.874  0.00  0.00    -0.269 OA
ATOM      7  N   UNL     1       4.616   8.804  20.091  0.00  0.00    -0.214 NA
ATOM      8  C   UNL     1       3.482   8.972  19.388  0.00  0.00    +0.091 A 
ATOM      9  C   UNL     1       3.102  10.093  18.657  0.00  0.00    +0.034 A 
ATOM     10  C   UNL     1       1.860  10.057  17.985  0.00  0.00    -0.031 A 
ATOM     11  C   UNL     1       1.039   8.904  18.083  0.00  0.00    +0.007 A 
ATOM     12  C   UNL     1       1.453   7.791  18.835  0.00  0.00    +0.028 A 
ATOM     13  C   UNL     1       2.693   7.861  19.473  0.00  0.00    +0.070 A 
ENDROOT
BRANCH   5  14
ATOM     14  C   UNL     1       7.104   5.083  21.938  0.00  0.00    +0.075 A 
ATOM     15  S   UNL     1       8.718   5.506  22.163  0.00  0.00    -0.084 S 
ATOM     16  C   UNL     1       9.055   4.321  23.310  0.00  0.00    +0.023 A 
ATOM     17  C   UNL     1       7.898   3.582  23.539  0.00  0.00    +0.017 A 
ATOM     18  C   UNL     1       6.806   4.011  22.774  0.00  0.00    +0.021 A 
BRANCH  16  19
ATOM     19  C   UNL     1      10.365   4.097  23.940  0.00  0.00    +0.026 A 
ATOM     20  C   UNL     1      11.373   5.023  24.131  0.00  0.00    +0.143 A 
ATOM     21  N   UNL     1      12.427   4.418  24.713  0.00  0.00    -0.182 NA
ATOM     22  N   UNL     1      12.113   3.144  24.893  0.00  0.00    -0.284 N 
ATOM     23  H   UNL     1      12.750   2.437  25.321  0.00  0.00    +0.188 HD
ATOM     24  C   UNL     1      10.869   2.913  24.436  0.00  0.00    +0.114 A 
ENDBRANCH  16  19
ENDBRANCH   5  14
BRANCH   1  25
ATOM     25  C   UNL     1       2.772   5.652  20.697  0.00  0.00    +0.159 C 
BRANCH  25  27
ATOM     26  C   UNL     1       0.694   4.949  21.914  0.00  0.00    +0.043 C 
ATOM     27  C   UNL     1       1.991   5.763  22.034  0.00  0.00    +0.078 C 
ATOM     28  C   UNL     1       2.814   5.201  23.216  0.00  0.00    +0.043 C 
BRANCH  27  29
ATOM     29  O   UNL     1       1.629   7.102  22.280  0.00  0.00    -0.387 OA
ATOM     30  H   UNL     1       0.863   7.108  22.911  0.00  0.00    +0.210 HD
ENDBRANCH  27  29
ENDBRANCH  25  27
ENDBRANCH   1  25
BRANCH  10  31
ATOM     31  C   UNL     1       1.404  11.254  17.196  0.00  0.00    +0.116 C 
BRANCH  31  32
ATOM     32  N   UNL     1       2.405  11.615  16.181  0.00  0.00    -0.308 NA
ATOM     33  H   UNL     1       3.036  10.794  16.026  0.00  0.00    +0.123 HD
BRANCH  32  34
ATOM     34  C   UNL     1       1.799  12.014  14.899  0.00  0.00    +0.116 C 
BRANCH  34  35
ATOM     35  C   UNL     1       2.261  13.381  14.450  0.00  0.00    -0.034 A 
ATOM     36  C   UNL     1       3.547  13.837  14.787  0.00  0.00    +0.005 A 
ATOM     37  C   UNL     1       3.982  15.097  14.363  0.00  0.00    +0.000 A 
ATOM     38  C   UNL     1       3.139  15.909  13.601  0.00  0.00    +0.000 A 
ATOM     39  C   UNL     1       1.858  15.462  13.260  0.00  0.00    +0.000 A 
ATOM     40  C   UNL     1       1.419  14.204  13.683  0.00  0.00    +0.005 A 
ENDBRANCH  34  35
ENDBRANCH  32  34
ENDBRANCH  31  32
ENDBRANCH  10  31
TORSDOF 9
ENDMDL
MODEL 5
REMARK VINA RESULT:    -8.662      2.903      4.102
REMARK INTER + INTRA:         -14.149
REMARK INTER:                 -12.893
REMARK INTRA:                  -1.256
REMARK UNBOUND:                -1.183
REMARK  Name = 
REMARK  11 active torsions:
REMARK  status: ('A' for Active; 'I' for Inactive)
REMARK    1  A    between atoms: C_1  and  C_2
REMARK    2  A    between atoms: C_2  and  C_3
REMARK    3  A    between atoms: C_2  and  C_4
REMARK    4  A    between atoms: C_2  and  O_36
REMARK    5  A    between atoms: C_4  and  N_5
REMARK    6  A    between atoms: C_9  and  C_12
REMARK    7  A    between atoms: C_12  and  N_13
REMARK    8  A    between atoms: N_13  and  C_14
REMARK    9  A    between atoms: C_14  and  C_15
REMARK   10  A    between atoms: C_24  and  C_26
REMARK   11  A    between atoms: C_29  and  C_31
REMARK                            x       y       z     vdW  Elec       q    Type
REMARK                         _______ _______ _______ _____ _____    ______ ____
ROOT
ATOM      1  N   UNL     1       7.944   6.228  20.531  0.00  0.00    -0.309 N 
ATOM      2  C   UNL     1       7.551   7.452  20.082  0.00  0.00    +0.203 A 
ATOM      3  N   UNL     1       8.349   8.294  19.246  0.00  0.00    -0.251 N 
ATOM      4  H   UNL     1       8.432   9.300  19.514  0.00  0.00    +0.158 HD
ATOM      5  C   UNL     1       8.756   7.892  17.931  0.00  0.00    +0.257 C 
ATOM      6  O   UNL     1       8.313   6.819  17.435  0.00  0.00    -0.269 OA
ATOM      7  N   UNL     1       6.321   7.827  20.517  0.00  0.00    -0.214 NA
ATOM      8  C   UNL     1       5.929   6.770  21.250  0.00  0.00    +0.091 A 
ATOM      9  C   UNL     1       4.724   6.615  21.929  0.00  0.00    +0.034 A 
ATOM     10  C   UNL     1       4.514   5.414  22.641  0.00  0.00    -0.031 A 
ATOM     11  C   UNL     1       5.525   4.418  22.657  0.00  0.00    +0.007 A 
ATOM     12  C   UNL     1       6.733   4.611  21.964  0.00  0.00    +0.028 A 
ATOM     13  C   UNL     1       6.896   5.806  21.261  0.00  0.00    +0.070 A 
ENDROOT
BRANCH   5  14
ATOM     14  C   UNL     1       9.668   8.732  17.138  0.00  0.00    +0.075 A 
ATOM     15  S   UNL     1       9.969   8.578  15.489  0.00  0.00    -0.084 S 
ATOM     16  C   UNL     1      11.067   9.850  15.388  0.00  0.00    +0.023 A 
ATOM     17  C   UNL     1      11.205  10.419  16.651  0.00  0.00    +0.017 A 
ATOM     18  C   UNL     1      10.420   9.796  17.628  0.00  0.00    +0.021 A 
BRANCH  16  19
ATOM     19  C   UNL     1      11.777  10.265  14.169  0.00  0.00    +0.026 A 
ATOM     20  C   UNL     1      11.999   9.512  13.031  0.00  0.00    +0.143 A 
ATOM     21  N   UNL     1      12.716  10.238  12.151  0.00  0.00    -0.182 NA
ATOM     22  N   UNL     1      12.951  11.420  12.700  0.00  0.00    -0.284 N 
ATOM     23  H   UNL     1      13.493  12.184  12.239  0.00  0.00    +0.188 HD
ATOM     24  C   UNL     1      12.396  11.473  13.924  0.00  0.00    +0.114 A 
ENDBRANCH  16  19
ENDBRANCH   5  14
BRANCH   1  25
ATOM     25  C   UNL     1       9.246   5.564  20.366  0.00  0.00    +0.159 C 
BRANCH  25  27
ATOM     26  C   UNL     1      10.959   5.217  22.166  0.00  0.00    +0.043 C 
ATOM     27  C   UNL     1      10.373   6.246  21.186  0.00  0.00    +0.078 C 
ATOM     28  C   UNL     1      11.511   6.752  20.271  0.00  0.00    +0.043 C 
BRANCH  27  29
ATOM     29  O   UNL     1       9.849   7.306  21.952  0.00  0.00    -0.387 OA
ATOM     30  H   UNL     1      10.272   7.284  22.850  0.00  0.00    +0.210 HD
ENDBRANCH  27  29
ENDBRANCH  25  27
ENDBRANCH   1  25
BRANCH  10  31
ATOM     31  C   UNL     1       3.231   5.212  23.402  0.00  0.00    +0.116 C 
BRANCH  31  32
ATOM     32  N   UNL     1       2.118   4.953  22.477  0.00  0.00    -0.308 NA
ATOM     33  H   UNL     1       1.559   4.146  22.841  0.00  0.00    +0.123 HD
BRANCH  32  34
ATOM     34  C   UNL     1       1.236   6.120  22.307  0.00  0.00    +0.116 C 
BRANCH  34  35
ATOM     35  C   UNL     1       1.020   6.466  20.852  0.00  0.00    -0.034 A 
ATOM     36  C   UNL     1       0.287   5.600  20.022  0.00  0.00    +0.005 A 
ATOM     37  C   UNL     1       0.075   5.922  18.677  0.00  0.00    +0.000 A 
ATOM     38  C   UNL     1       0.591   7.110  18.153  0.00  0.00    +0.000 A 
ATOM     39  C   UNL     1       1.320   7.978  18.972  0.00  0.00    +0.000 A 
ATOM     40  C   UNL     1       1.535   7.658  20.316  0.00  0.00    +0.005 A 
ENDBRANCH  34  35
ENDBRANCH  32  34
ENDBRANCH  31  32
ENDBRANCH  10  31
TORSDOF 9
ENDMDL
MODEL 6
REMARK VINA RESULT:    -8.603      4.400      7.443
REMARK INTER + INTRA:         -14.060
REMARK INTER:                 -12.737
REMARK INTRA:                  -1.324
REMARK UNBOUND:                -1.183
REMARK  Name = 
REMARK  11 active torsions:
REMARK  status: ('A' for Active; 'I' for Inactive)
REMARK    1  A    between atoms: C_1  and  C_2
REMARK    2  A    between atoms: C_2  and  C_3
REMARK    3  A    between atoms: C_2  and  C_4
REMARK    4  A    between atoms: C_2  and  O_36
REMARK    5  A    between atoms: C_4  and  N_5
REMARK    6  A    between atoms: C_9  and  C_12
REMARK    7  A    between atoms: C_12  and  N_13
REMARK    8  A    between atoms: N_13  and  C_14
REMARK    9  A    between atoms: C_14  and  C_15
REMARK   10  A    between atoms: C_24  and  C_26
REMARK   11  A    between atoms: C_29  and  C_31
REMARK                            x       y       z     vdW  Elec       q    Type
REMARK                         _______ _______ _______ _____ _____    ______ ____
ROOT
ATOM      1  N   UNL     1       7.994   5.946  20.240  0.00  0.00    -0.309 N 
ATOM      2  C   UNL     1       7.134   5.574  21.228  0.00  0.00    +0.203 A 
ATOM      3  N   UNL     1       7.408   4.548  22.185  0.00  0.00    -0.251 N 
ATOM      4  H   UNL     1       6.661   3.840  22.360  0.00  0.00    +0.158 HD
ATOM      5  C   UNL     1       8.501   4.644  23.110  0.00  0.00    +0.257 C 
ATOM      6  O   UNL     1       9.181   5.706  23.173  0.00  0.00    -0.269 OA
ATOM      7  N   UNL     1       5.961   6.257  21.221  0.00  0.00    -0.214 NA
ATOM      8  C   UNL     1       6.118   7.108  20.191  0.00  0.00    +0.091 A 
ATOM      9  C   UNL     1       5.209   8.058  19.737  0.00  0.00    +0.034 A 
ATOM     10  C   UNL     1       5.581   8.856  18.631  0.00  0.00    -0.031 A 
ATOM     11  C   UNL     1       6.843   8.661  18.014  0.00  0.00    +0.007 A 
ATOM     12  C   UNL     1       7.734   7.686  18.497  0.00  0.00    +0.028 A 
ATOM     13  C   UNL     1       7.335   6.928  19.599  0.00  0.00    +0.070 A 
ENDROOT
BRANCH   5  14
ATOM     14  C   UNL     1       8.824   3.524  24.008  0.00  0.00    +0.075 A 
ATOM     15  S   UNL     1       7.808   2.875  25.183  0.00  0.00    -0.084 S 
ATOM     16  C   UNL     1       8.887   1.701  25.724  0.00  0.00    +0.023 A 
ATOM     17  C   UNL     1      10.060   1.799  24.981  0.00  0.00    +0.017 A 
ATOM     18  C   UNL     1      10.023   2.815  24.018  0.00  0.00    +0.021 A 
BRANCH  16  19
ATOM     19  C   UNL     1       8.632   0.754  26.820  0.00  0.00    +0.026 A 
ATOM     20  C   UNL     1       9.402  -0.335  27.182  0.00  0.00    +0.143 A 
ATOM     21  N   UNL     1       8.813  -0.971  28.214  0.00  0.00    -0.182 NA
ATOM     22  N   UNL     1       7.701  -0.317  28.510  0.00  0.00    -0.284 N 
ATOM     23  H   UNL     1       7.041  -0.594  29.270  0.00  0.00    +0.188 HD
ATOM     24  C   UNL     1       7.558   0.736  27.685  0.00  0.00    +0.114 A 
ENDBRANCH  16  19
ENDBRANCH   5  14
BRANCH   1  25
ATOM     25  C   UNL     1       9.285   5.345  19.872  0.00  0.00    +0.159 C 
BRANCH  25  27
ATOM     26  C   UNL     1      11.589   5.430  20.862  0.00  0.00    +0.043 C 
ATOM     27  C   UNL     1      10.489   6.270  20.194  0.00  0.00    +0.078 C 
ATOM     28  C   UNL     1      11.071   6.906  18.911  0.00  0.00    +0.043 C 
BRANCH  27  29
ATOM     29  O   UNL     1      10.108   7.270  21.110  0.00  0.00    -0.387 OA
ATOM     30  H   UNL     1       9.284   7.708  20.770  0.00  0.00    +0.210 HD
ENDBRANCH  27  29
ENDBRANCH  25  27
ENDBRANCH   1  25
BRANCH  10  31
ATOM     31  C   UNL     1       4.621   9.886  18.099  0.00  0.00    +0.116 C 
BRANCH  31  32
ATOM     32  N   UNL     1       3.636  10.253  19.127  0.00  0.00    -0.308 NA
ATOM     33  H   UNL     1       3.735  11.274  19.337  0.00  0.00    +0.123 HD
BRANCH  32  34
ATOM     34  C   UNL     1       2.250   9.973  18.713  0.00  0.00    +0.116 C 
BRANCH  34  35
ATOM     35  C   UNL     1       1.713   8.706  19.338  0.00  0.00    -0.034 A 
ATOM     36  C   UNL     1       1.087   7.735  18.538  0.00  0.00    +0.005 A 
ATOM     37  C   UNL     1       0.599   6.556  19.111  0.00  0.00    +0.000 A 
ATOM     38  C   UNL     1       0.732   6.338  20.484  0.00  0.00    +0.000 A 
ATOM     39  C   UNL     1       1.354   7.298  21.288  0.00  0.00    +0.000 A 
ATOM     40  C   UNL     1       1.842   8.479  20.719  0.00  0.00    +0.005 A 
ENDBRANCH  34  35
ENDBRANCH  32  34
ENDBRANCH  31  32
ENDBRANCH  10  31
TORSDOF 9
ENDMDL
MODEL 7
REMARK VINA RESULT:    -8.473      5.786      7.687
REMARK INTER + INTRA:         -13.865
REMARK INTER:                 -12.641
REMARK INTRA:                  -1.224
REMARK UNBOUND:                -1.183
REMARK  Name = 
REMARK  11 active torsions:
REMARK  status: ('A' for Active; 'I' for Inactive)
REMARK    1  A    between atoms: C_1  and  C_2
REMARK    2  A    between atoms: C_2  and  C_3
REMARK    3  A    between atoms: C_2  and  C_4
REMARK    4  A    between atoms: C_2  and  O_36
REMARK    5  A    between atoms: C_4  and  N_5
REMARK    6  A    between atoms: C_9  and  C_12
REMARK    7  A    between atoms: C_12  and  N_13
REMARK    8  A    between atoms: N_13  and  C_14
REMARK    9  A    between atoms: C_14  and  C_15
REMARK   10  A    between atoms: C_24  and  C_26
REMARK   11  A    between atoms: C_29  and  C_31
REMARK                            x       y       z     vdW  Elec       q    Type
REMARK                         _______ _______ _______ _____ _____    ______ ____
ROOT
ATOM      1  N   UNL     1       5.978   4.869  22.091  0.00  0.00    -0.309 N 
ATOM      2  C   UNL     1       6.923   5.549  22.797  0.00  0.00    +0.203 A 
ATOM      3  N   UNL     1       7.652   4.999  23.897  0.00  0.00    -0.251 N 
ATOM      4  H   UNL     1       7.730   5.579  24.762  0.00  0.00    +0.158 HD
ATOM      5  C   UNL     1       8.517   3.865  23.744  0.00  0.00    +0.257 C 
ATOM      6  O   UNL     1       8.743   3.395  22.594  0.00  0.00    -0.269 OA
ATOM      7  N   UNL     1       7.109   6.826  22.377  0.00  0.00    -0.214 NA
ATOM      8  C   UNL     1       6.253   6.929  21.346  0.00  0.00    +0.091 A 
ATOM      9  C   UNL     1       6.037   8.039  20.535  0.00  0.00    +0.034 A 
ATOM     10  C   UNL     1       5.084   7.928  19.498  0.00  0.00    -0.031 A 
ATOM     11  C   UNL     1       4.374   6.714  19.321  0.00  0.00    +0.007 A 
ATOM     12  C   UNL     1       4.613   5.613  20.162  0.00  0.00    +0.028 A 
ATOM     13  C   UNL     1       5.572   5.759  21.167  0.00  0.00    +0.070 A 
ENDROOT
BRANCH   5  14
ATOM     14  C   UNL     1       9.167   3.253  24.914  0.00  0.00    +0.075 A 
ATOM     15  S   UNL     1      10.224   1.943  24.884  0.00  0.00    -0.084 S 
ATOM     16  C   UNL     1      10.486   1.886  26.546  0.00  0.00    +0.023 A 
ATOM     17  C   UNL     1       9.751   2.905  27.147  0.00  0.00    +0.017 A 
ATOM     18  C   UNL     1       9.017   3.671  26.234  0.00  0.00    +0.021 A 
BRANCH  16  19
ATOM     19  C   UNL     1      11.332   0.903  27.239  0.00  0.00    +0.026 A 
ATOM     20  C   UNL     1      12.135   1.120  28.343  0.00  0.00    +0.143 A 
ATOM     21  N   UNL     1      12.776  -0.024  28.656  0.00  0.00    -0.182 NA
ATOM     22  N   UNL     1      12.400  -0.949  27.786  0.00  0.00    -0.284 N 
ATOM     23  H   UNL     1      12.747  -1.933  27.789  0.00  0.00    +0.188 HD
ATOM     24  C   UNL     1      11.524  -0.423  26.912  0.00  0.00    +0.114 A 
ENDBRANCH  16  19
ENDBRANCH   5  14
BRANCH   1  25
ATOM     25  C   UNL     1       5.433   3.526  22.343  0.00  0.00    +0.159 C 
BRANCH  25  27
ATOM     26  C   UNL     1       5.004   3.160  24.787  0.00  0.00    +0.043 C 
ATOM     27  C   UNL     1       4.343   3.520  23.447  0.00  0.00    +0.078 C 
ATOM     28  C   UNL     1       3.675   4.906  23.588  0.00  0.00    +0.043 C 
BRANCH  27  29
ATOM     29  O   UNL     1       3.375   2.532  23.176  0.00  0.00    -0.387 OA
ATOM     30  H   UNL     1       3.618   1.710  23.676  0.00  0.00    +0.210 HD
ENDBRANCH  27  29
ENDBRANCH  25  27
ENDBRANCH   1  25
BRANCH  10  31
ATOM     31  C   UNL     1       4.810   9.111  18.608  0.00  0.00    +0.116 C 
BRANCH  31  32
ATOM     32  N   UNL     1       3.981  10.103  19.308  0.00  0.00    -0.308 NA
ATOM     33  H   UNL     1       4.325  11.061  19.063  0.00  0.00    +0.123 HD
BRANCH  32  34
ATOM     34  C   UNL     1       2.552   9.994  18.965  0.00  0.00    +0.116 C 
BRANCH  34  35
ATOM     35  C   UNL     1       1.904   8.782  19.594  0.00  0.00    -0.034 A 
ATOM     36  C   UNL     1       1.258   7.830  18.786  0.00  0.00    +0.005 A 
ATOM     37  C   UNL     1       0.668   6.700  19.363  0.00  0.00    +0.000 A 
ATOM     38  C   UNL     1       0.718   6.514  20.746  0.00  0.00    +0.000 A 
ATOM     39  C   UNL     1       1.360   7.456  21.557  0.00  0.00    +0.000 A 
ATOM     40  C   UNL     1       1.950   8.587  20.984  0.00  0.00    +0.005 A 
ENDBRANCH  34  35
ENDBRANCH  32  34
ENDBRANCH  31  32
ENDBRANCH  10  31
TORSDOF 9
ENDMDL
MODEL 8
REMARK VINA RESULT:    -8.420      5.539      7.483
REMARK INTER + INTRA:         -13.786
REMARK INTER:                 -12.748
REMARK INTRA:                  -1.037
REMARK UNBOUND:                -1.183
REMARK  Name = 
REMARK  11 active torsions:
REMARK  status: ('A' for Active; 'I' for Inactive)
REMARK    1  A    between atoms: C_1  and  C_2
REMARK    2  A    between atoms: C_2  and  C_3
REMARK    3  A    between atoms: C_2  and  C_4
REMARK    4  A    between atoms: C_2  and  O_36
REMARK    5  A    between atoms: C_4  and  N_5
REMARK    6  A    between atoms: C_9  and  C_12
REMARK    7  A    between atoms: C_12  and  N_13
REMARK    8  A    between atoms: N_13  and  C_14
REMARK    9  A    between atoms: C_14  and  C_15
REMARK   10  A    between atoms: C_24  and  C_26
REMARK   11  A    between atoms: C_29  and  C_31
REMARK                            x       y       z     vdW  Elec       q    Type
REMARK                         _______ _______ _______ _____ _____    ______ ____
ROOT
ATOM      1  N   UNL     1       8.251   5.461  23.134  0.00  0.00    -0.309 N 
ATOM      2  C   UNL     1       8.063   4.156  22.792  0.00  0.00    +0.203 A 
ATOM      3  N   UNL     1       8.749   3.060  23.402  0.00  0.00    -0.251 N 
ATOM      4  H   UNL     1       9.163   2.339  22.771  0.00  0.00    +0.158 HD
ATOM      5  C   UNL     1       8.612   2.762  24.799  0.00  0.00    +0.257 C 
ATOM      6  O   UNL     1       7.781   3.401  25.501  0.00  0.00    -0.269 OA
ATOM      7  N   UNL     1       7.165   3.975  21.789  0.00  0.00    -0.214 NA
ATOM      8  C   UNL     1       6.765   5.230  21.518  0.00  0.00    +0.091 A 
ATOM      9  C   UNL     1       5.832   5.630  20.566  0.00  0.00    +0.034 A 
ATOM     10  C   UNL     1       5.556   7.010  20.448  0.00  0.00    -0.031 A 
ATOM     11  C   UNL     1       6.234   7.938  21.279  0.00  0.00    +0.007 A 
ATOM     12  C   UNL     1       7.175   7.499  22.226  0.00  0.00    +0.028 A 
ATOM     13  C   UNL     1       7.410   6.126  22.321  0.00  0.00    +0.070 A 
ENDROOT
BRANCH   5  14
ATOM     14  C   UNL     1       9.416   1.697  25.420  0.00  0.00    +0.075 A 
ATOM     15  S   UNL     1      10.132   0.403  24.615  0.00  0.00    -0.084 S 
ATOM     16  C   UNL     1      10.819  -0.300  25.982  0.00  0.00    +0.023 A 
ATOM     17  C   UNL     1      10.501   0.480  27.091  0.00  0.00    +0.017 A 
ATOM     18  C   UNL     1       9.720   1.599  26.775  0.00  0.00    +0.021 A 
BRANCH  16  19
ATOM     19  C   UNL     1      11.601  -1.545  25.995  0.00  0.00    +0.026 A 
ATOM     20  C   UNL     1      11.431  -2.650  25.181  0.00  0.00    +0.143 A 
ATOM     21  N   UNL     1      12.324  -3.598  25.528  0.00  0.00    -0.182 NA
ATOM     22  N   UNL     1      13.047  -3.124  26.531  0.00  0.00    -0.284 N 
ATOM     23  H   UNL     1      13.814  -3.652  27.003  0.00  0.00    +0.188 HD
ATOM     24  C   UNL     1      12.637  -1.881  26.841  0.00  0.00    +0.114 A 
ENDBRANCH  16  19
ENDBRANCH   5  14
BRANCH   1  25
ATOM     25  C   UNL     1       9.225   6.031  24.077  0.00  0.00    +0.159 C 
BRANCH  25  27
ATOM     26  C   UNL     1      11.184   7.447  23.403  0.00  0.00    +0.043 C 
ATOM     27  C   UNL     1      10.677   6.002  23.529  0.00  0.00    +0.078 C 
ATOM     28  C   UNL     1      11.623   5.232  24.478  0.00  0.00    +0.043 C 
BRANCH  27  29
ATOM     29  O   UNL     1      10.703   5.432  22.240  0.00  0.00    -0.387 OA
ATOM     30  H   UNL     1      11.580   4.986  22.112  0.00  0.00    +0.210 HD
ENDBRANCH  27  29
ENDBRANCH  25  27
ENDBRANCH   1  25
BRANCH  10  31
ATOM     31  C   UNL     1       4.564   7.487  19.421  0.00  0.00    +0.116 C 
BRANCH  31  32
ATOM     32  N   UNL     1       4.029   8.805  19.792  0.00  0.00    -0.308 NA
ATOM     33  H   UNL     1       4.583   9.543  19.298  0.00  0.00    +0.123 HD
BRANCH  32  34
ATOM     34  C   UNL     1       2.603   8.956  19.456  0.00  0.00    +0.116 C 
BRANCH  34  35
ATOM     35  C   UNL     1       1.789   7.750  19.865  0.00  0.00    -0.034 A 
ATOM     36  C   UNL     1       1.034   7.051  18.908  0.00  0.00    +0.005 A 
ATOM     37  C   UNL     1       0.288   5.928  19.281  0.00  0.00    +0.000 A 
ATOM     38  C   UNL     1       0.291   5.496  20.609  0.00  0.00    +0.000 A 
ATOM     39  C   UNL     1       1.039   6.186  21.568  0.00  0.00    +0.000 A 
ATOM     40  C   UNL     1       1.785   7.310  21.199  0.00  0.00    +0.005 A 
ENDBRANCH  34  35
ENDBRANCH  32  34
ENDBRANCH  31  32
ENDBRANCH  10  31
TORSDOF 9
ENDMDL
MODEL 9
REMARK VINA RESULT:    -8.156      5.802      7.805
REMARK INTER + INTRA:         -13.391
REMARK INTER:                 -12.285
REMARK INTRA:                  -1.105
REMARK UNBOUND:                -1.183
REMARK  Name = 
REMARK  11 active torsions:
REMARK  status: ('A' for Active; 'I' for Inactive)
REMARK    1  A    between atoms: C_1  and  C_2
REMARK    2  A    between atoms: C_2  and  C_3
REMARK    3  A    between atoms: C_2  and  C_4
REMARK    4  A    between atoms: C_2  and  O_36
REMARK    5  A    between atoms: C_4  and  N_5
REMARK    6  A    between atoms: C_9  and  C_12
REMARK    7  A    between atoms: C_12  and  N_13
REMARK    8  A    between atoms: N_13  and  C_14
REMARK    9  A    between atoms: C_14  and  C_15
REMARK   10  A    between atoms: C_24  and  C_26
REMARK   11  A    between atoms: C_29  and  C_31
REMARK                            x       y       z     vdW  Elec       q    Type
REMARK                         _______ _______ _______ _____ _____    ______ ____
ROOT
ATOM      1  N   UNL     1       8.932   5.454  23.485  0.00  0.00    -0.309 N 
ATOM      2  C   UNL     1       8.825   4.216  22.926  0.00  0.00    +0.203 A 
ATOM      3  N   UNL     1       9.627   3.094  23.304  0.00  0.00    -0.251 N 
ATOM      4  H   UNL     1      10.059   2.531  22.538  0.00  0.00    +0.158 HD
ATOM      5  C   UNL     1       9.593   2.548  24.630  0.00  0.00    +0.257 C 
ATOM      6  O   UNL     1       8.756   2.983  25.469  0.00  0.00    -0.269 OA
ATOM      7  N   UNL     1       7.889   4.134  21.946  0.00  0.00    -0.214 NA
ATOM      8  C   UNL     1       7.378   5.378  21.918  0.00  0.00    +0.091 A 
ATOM      9  C   UNL     1       6.365   5.855  21.092  0.00  0.00    +0.034 A 
ATOM     10  C   UNL     1       5.977   7.206  21.231  0.00  0.00    -0.031 A 
ATOM     11  C   UNL     1       6.628   8.032  22.183  0.00  0.00    +0.007 A 
ATOM     12  C   UNL     1       7.652   7.518  22.998  0.00  0.00    +0.028 A 
ATOM     13  C   UNL     1       7.997   6.174  22.839  0.00  0.00    +0.070 A 
ENDROOT
BRANCH   5  14
ATOM     14  C   UNL     1      10.510   1.465  25.019  0.00  0.00    +0.075 A 
ATOM     15  S   UNL     1      10.124  -0.172  25.104  0.00  0.00    -0.084 S 
ATOM     16  C   UNL     1      11.648  -0.688  25.601  0.00  0.00    +0.023 A 
ATOM     17  C   UNL     1      12.484   0.421  25.699  0.00  0.00    +0.017 A 
ATOM     18  C   UNL     1      11.848   1.624  25.369  0.00  0.00    +0.021 A 
BRANCH  16  19
ATOM     19  C   UNL     1      12.016  -2.079  25.905  0.00  0.00    +0.026 A 
ATOM     20  C   UNL     1      12.915  -2.519  26.858  0.00  0.00    +0.143 A 
ATOM     21  N   UNL     1      12.998  -3.864  26.802  0.00  0.00    -0.182 NA
ATOM     22  N   UNL     1      12.181  -4.279  25.847  0.00  0.00    -0.284 N 
ATOM     23  H   UNL     1      12.049  -5.280  25.582  0.00  0.00    +0.188 HD
ATOM     24  C   UNL     1      11.567  -3.225  25.281  0.00  0.00    +0.114 A 
ENDBRANCH  16  19
ENDBRANCH   5  14
BRANCH   1  25
ATOM     25  C   UNL     1       9.910   5.934  24.472  0.00  0.00    +0.159 C 
BRANCH  25  27
ATOM     26  C   UNL     1      12.260   6.726  24.855  0.00  0.00    +0.043 C 
ATOM     27  C   UNL     1      11.136   6.622  23.813  0.00  0.00    +0.078 C 
ATOM     28  C   UNL     1      11.660   5.809  22.608  0.00  0.00    +0.043 C 
BRANCH  27  29
ATOM     29  O   UNL     1      10.807   7.934  23.416  0.00  0.00    -0.387 OA
ATOM     30  H   UNL     1      10.385   7.892  22.518  0.00  0.00    +0.210 HD
ENDBRANCH  27  29
ENDBRANCH  25  27
ENDBRANCH   1  25
BRANCH  10  31
ATOM     31  C   UNL     1       4.896   7.766  20.347  0.00  0.00    +0.116 C 
BRANCH  31  32
ATOM     32  N   UNL     1       3.750   6.846  20.287  0.00  0.00    -0.308 NA
ATOM     33  H   UNL     1       4.102   5.865  20.385  0.00  0.00    +0.123 HD
BRANCH  32  34
ATOM     34  C   UNL     1       2.751   7.112  21.337  0.00  0.00    +0.116 C 
BRANCH  34  35
ATOM     35  C   UNL     1       2.582   5.939  22.275  0.00  0.00    -0.034 A 
ATOM     36  C   UNL     1       3.521   5.712  23.297  0.00  0.00    +0.005 A 
ATOM     37  C   UNL     1       3.362   4.635  24.174  0.00  0.00    +0.000 A 
ATOM     38  C   UNL     1       2.266   3.778  24.038  0.00  0.00    +0.000 A 
ATOM     39  C   UNL     1       1.327   3.997  23.026  0.00  0.00    +0.000 A 
ATOM     40  C   UNL     1       1.484   5.073  22.146  0.00  0.00    +0.005 A 
ENDBRANCH  34  35
ENDBRANCH  32  34
ENDBRANCH  31  32
ENDBRANCH  10  31
TORSDOF 9
ENDMDL
