MODEL 1
REMARK VINA RESULT:    -9.405      0.000      0.000
REMARK INTER + INTRA:         -14.566
REMARK INTER:                 -13.254
REMARK INTRA:                  -1.312
REMARK UNBOUND:                -1.312
REMARK  Name = 
REMARK  7 active torsions:
REMARK  status: ('A' for Active; 'I' for Inactive)
REMARK    1  A    between atoms: C_2  and  C_3
REMARK    2  A    between atoms: N_5  and  C_6
REMARK    3  A    between atoms: C_8  and  O_12
REMARK    4  A    between atoms: O_12  and  C_13
REMARK    5  A    between atoms: C_19  and  C_22
REMARK    6  A    between atoms: N_28  and  C_29
REMARK    7  A    between atoms: C_32  and  N_35
REMARK                            x       y       z     vdW  Elec       q    Type
REMARK                         _______ _______ _______ _____ _____    ______ ____
ROOT
ATOM      1  C   UNL     1       7.610   4.175  21.681  0.00  0.00    +0.235 A 
ATOM      2  C   UNL     1       8.856   4.401  22.261  0.00  0.00    +0.088 A 
ATOM      3  C   UNL     1       9.440   4.020  23.460  0.00  0.00    +0.014 A 
ATOM      4  C   UNL     1      10.692   4.635  23.474  0.00  0.00    +0.093 A 
ATOM      5  N   UNL     1      10.888   5.345  22.339  0.00  0.00    -0.345 N 
ATOM      6  H   UNL     1      11.735   5.896  22.080  0.00  0.00    +0.167 HD
ATOM      7  C   UNL     1       9.766   5.189  21.619  0.00  0.00    +0.148 A 
ATOM      8  N   UNL     1       9.519   5.735  20.404  0.00  0.00    -0.196 NA
ATOM      9  C   UNL     1       8.309   5.495  19.813  0.00  0.00    +0.224 A 
ATOM     10  N   UNL     1       8.009   6.023  18.513  0.00  0.00    -0.283 N 
ATOM     11  H   UNL     1       7.211   5.589  17.994  0.00  0.00    +0.155 HD
ATOM     12  N   UNL     1       7.381   4.713  20.448  0.00  0.00    -0.178 NA
ENDROOT
BRANCH   3  13
ATOM     13  C   UNL     1       8.899   3.130  24.506  0.00  0.00    -0.013 A 
ATOM     14  C   UNL     1       7.801   3.536  25.277  0.00  0.00    +0.028 A 
ATOM     15  C   UNL     1       7.301   2.684  26.266  0.00  0.00    +0.111 A 
ATOM     16  N   UNL     1       7.885   1.476  26.485  0.00  0.00    -0.263 NA
ATOM     17  C   UNL     1       8.966   1.067  25.769  0.00  0.00    +0.111 A 
ATOM     18  C   UNL     1       9.498   1.890  24.773  0.00  0.00    +0.028 A 
ENDBRANCH   3  13
BRANCH  10  19
ATOM     19  C   UNL     1       8.770   7.046  17.850  0.00  0.00    +0.034 A 
ATOM     20  C   UNL     1       9.743   6.733  16.886  0.00  0.00    +0.025 A 
ATOM     21  C   UNL     1      10.493   7.747  16.283  0.00  0.00    +0.025 A 
ATOM     22  C   UNL     1      10.303   9.090  16.650  0.00  0.00    +0.030 A 
ATOM     23  C   UNL     1       9.346   9.398  17.631  0.00  0.00    +0.025 A 
ATOM     24  C   UNL     1       8.593   8.384  18.229  0.00  0.00    +0.025 A 
BRANCH  22  25
ATOM     25  N   UNL     1      11.068  10.138  16.021  0.00  0.00    -0.326 N 
ATOM     26  C   UNL     1      11.681   9.888  14.706  0.00  0.00    +0.133 C 
ATOM     27  C   UNL     1      12.005  11.190  13.929  0.00  0.00    +0.178 C 
ATOM     28  O   UNL     1      11.620  12.371  14.607  0.00  0.00    -0.377 OA
ATOM     29  C   UNL     1      12.137  12.354  15.917  0.00  0.00    +0.178 C 
ATOM     30  C   UNL     1      11.319  11.385  16.758  0.00  0.00    +0.133 C 
ENDBRANCH  22  25
ENDBRANCH  10  19
BRANCH   1  31
ATOM     31  O   UNL     1       6.645   3.406  22.346  0.00  0.00    -0.437 OA
BRANCH  31  36
ATOM     32  C   UNL     1       3.631   5.545  22.580  0.00  0.00    +0.037 A 
ATOM     33  C   UNL     1       2.721   4.668  23.188  0.00  0.00    +0.023 A 
ATOM     34  C   UNL     1       3.103   3.366  23.518  0.00  0.00    +0.005 A 
ATOM     35  C   UNL     1       4.399   2.924  23.246  0.00  0.00    +0.046 A 
ATOM     36  C   UNL     1       5.331   3.793  22.647  0.00  0.00    +0.132 A 
ATOM     37  C   UNL     1       4.930   5.087  22.292  0.00  0.00    +0.069 A 
BRANCH  32  39
ATOM     38  C   UNL     1       2.473   7.168  21.001  0.00  0.00    +0.241 C 
ATOM     39  N   UNL     1       3.196   6.865  22.204  0.00  0.00    -0.282 N 
ATOM     40  H   UNL     1       3.490   7.669  22.803  0.00  0.00    +0.155 HD
ATOM     41  O   UNL     1       2.434   6.335  20.051  0.00  0.00    -0.271 OA
BRANCH  38  43
ATOM     42  C   UNL     1       2.255   9.406  19.988  0.00  0.00    +0.013 C 
ATOM     43  C   UNL     1       1.828   8.485  20.856  0.00  0.00    +0.060 C 
ENDBRANCH  38  43
ENDBRANCH  32  39
ENDBRANCH  31  36
ENDBRANCH   1  31
TORSDOF 7
ENDMDL
MODEL 2
REMARK VINA RESULT:    -9.361      2.750      3.814
REMARK INTER + INTRA:         -14.503
REMARK INTER:                 -13.130
REMARK INTRA:                  -1.373
REMARK UNBOUND:                -1.312
REMARK  Name = 
REMARK  7 active torsions:
REMARK  status: ('A' for Active; 'I' for Inactive)
REMARK    1  A    between atoms: C_2  and  C_3
REMARK    2  A    between atoms: N_5  and  C_6
REMARK    3  A    between atoms: C_8  and  O_12
REMARK    4  A    between atoms: O_12  and  C_13
REMARK    5  A    between atoms: C_19  and  C_22
REMARK    6  A    between atoms: N_28  and  C_29
REMARK    7  A    between atoms: C_32  and  N_35
REMARK                            x       y       z     vdW  Elec       q    Type
REMARK                         _______ _______ _______ _____ _____    ______ ____
ROOT
ATOM      1  C   UNL     1       5.861   6.100  19.336  0.00  0.00    +0.235 A 
ATOM      2  C   UNL     1       6.605   6.400  20.474  0.00  0.00    +0.088 A 
ATOM      3  C   UNL     1       6.416   6.179  21.830  0.00  0.00    +0.014 A 
ATOM      4  C   UNL     1       7.500   6.791  22.460  0.00  0.00    +0.093 A 
ATOM      5  N   UNL     1       8.330   7.346  21.548  0.00  0.00    -0.345 N 
ATOM      6  H   UNL     1       9.218   7.859  21.737  0.00  0.00    +0.167 HD
ATOM      7  C   UNL     1       7.771   7.098  20.354  0.00  0.00    +0.148 A 
ATOM      8  N   UNL     1       8.263   7.481  19.151  0.00  0.00    -0.196 NA
ATOM      9  C   UNL     1       7.554   7.166  18.024  0.00  0.00    +0.224 A 
ATOM     10  N   UNL     1       8.046   7.520  16.724  0.00  0.00    -0.283 N 
ATOM     11  H   UNL     1       7.629   7.021  15.904  0.00  0.00    +0.155 HD
ATOM     12  N   UNL     1       6.377   6.473  18.128  0.00  0.00    -0.178 NA
ENDROOT
BRANCH   3  13
ATOM     13  C   UNL     1       5.332   5.432  22.498  0.00  0.00    -0.013 A 
ATOM     14  C   UNL     1       4.349   6.118  23.227  0.00  0.00    +0.028 A 
ATOM     15  C   UNL     1       3.331   5.398  23.857  0.00  0.00    +0.111 A 
ATOM     16  N   UNL     1       3.302   4.041  23.774  0.00  0.00    -0.263 NA
ATOM     17  C   UNL     1       4.255   3.349  23.095  0.00  0.00    +0.111 A 
ATOM     18  C   UNL     1       5.292   4.031  22.453  0.00  0.00    +0.028 A 
ENDBRANCH   3  13
BRANCH  10  19
ATOM     19  C   UNL     1       9.116   8.448  16.478  0.00  0.00    +0.034 A 
ATOM     20  C   UNL     1       9.455   9.444  17.409  0.00  0.00    +0.025 A 
ATOM     21  C   UNL     1      10.477  10.356  17.127  0.00  0.00    +0.025 A 
ATOM     22  C   UNL     1      11.160  10.306  15.901  0.00  0.00    +0.030 A 
ATOM     23  C   UNL     1      10.802   9.324  14.963  0.00  0.00    +0.025 A 
ATOM     24  C   UNL     1       9.786   8.409  15.247  0.00  0.00    +0.025 A 
BRANCH  22  25
ATOM     25  N   UNL     1      12.222  11.238  15.614  0.00  0.00    -0.326 N 
ATOM     26  C   UNL     1      13.308  10.833  14.706  0.00  0.00    +0.133 C 
ATOM     27  C   UNL     1      14.062  12.037  14.085  0.00  0.00    +0.178 C 
ATOM     28  O   UNL     1      13.547  13.296  14.473  0.00  0.00    -0.377 OA
ATOM     29  C   UNL     1      13.452  13.356  15.877  0.00  0.00    +0.178 C 
ATOM     30  C   UNL     1      12.260  12.524  16.327  0.00  0.00    +0.133 C 
ENDBRANCH  22  25
ENDBRANCH  10  19
BRANCH   1  31
ATOM     31  O   UNL     1       4.638   5.425  19.443  0.00  0.00    -0.437 OA
BRANCH  31  36
ATOM     32  C   UNL     1       1.822   7.724  18.740  0.00  0.00    +0.037 A 
ATOM     33  C   UNL     1       0.848   7.243  19.627  0.00  0.00    +0.023 A 
ATOM     34  C   UNL     1       1.122   6.154  20.457  0.00  0.00    +0.005 A 
ATOM     35  C   UNL     1       2.371   5.532  20.412  0.00  0.00    +0.046 A 
ATOM     36  C   UNL     1       3.366   6.008  19.536  0.00  0.00    +0.132 A 
ATOM     37  C   UNL     1       3.073   7.082  18.687  0.00  0.00    +0.069 A 
BRANCH  32  39
ATOM     38  C   UNL     1       1.826  10.190  18.114  0.00  0.00    +0.241 C 
ATOM     39  N   UNL     1       1.496   8.816  17.859  0.00  0.00    -0.282 N 
ATOM     40  H   UNL     1       0.913   8.610  17.016  0.00  0.00    +0.155 HD
ATOM     41  O   UNL     1       2.163  10.562  19.274  0.00  0.00    -0.271 OA
BRANCH  38  43
ATOM     42  C   UNL     1       0.707  12.057  16.955  0.00  0.00    +0.013 C 
ATOM     43  C   UNL     1       1.709  11.177  17.025  0.00  0.00    +0.060 C 
ENDBRANCH  38  43
ENDBRANCH  32  39
ENDBRANCH  31  36
ENDBRANCH   1  31
TORSDOF 7
ENDMDL
MODEL 3
REMARK VINA RESULT:    -9.351      2.714      4.369
REMARK INTER + INTRA:         -14.489
REMARK INTER:                 -13.790
REMARK INTRA:                  -0.699
REMARK UNBOUND:                -1.312
REMARK  Name = 
REMARK  7 active torsions:
REMARK  status: ('A' for Active; 'I' for Inactive)
REMARK    1  A    between atoms: C_2  and  C_3
REMARK    2  A    between atoms: N_5  and  C_6
REMARK    3  A    between atoms: C_8  and  O_12
REMARK    4  A    between atoms: O_12  and  C_13
REMARK    5  A    between atoms: C_19  and  C_22
REMARK    6  A    between atoms: N_28  and  C_29
REMARK    7  A    between atoms: C_32  and  N_35
REMARK                            x       y       z     vdW  Elec       q    Type
REMARK                         _______ _______ _______ _____ _____    ______ ____
ROOT
ATOM      1  C   UNL     1       5.654   6.006  19.555  0.00  0.00    +0.235 A 
ATOM      2  C   UNL     1       6.545   5.465  20.480  0.00  0.00    +0.088 A 
ATOM      3  C   UNL     1       6.397   4.911  21.742  0.00  0.00    +0.014 A 
ATOM      4  C   UNL     1       7.692   4.623  22.174  0.00  0.00    +0.093 A 
ATOM      5  N   UNL     1       8.596   4.960  21.227  0.00  0.00    -0.345 N 
ATOM      6  H   UNL     1       9.632   4.847  21.279  0.00  0.00    +0.167 HD
ATOM      7  C   UNL     1       7.882   5.467  20.211  0.00  0.00    +0.148 A 
ATOM      8  N   UNL     1       8.384   5.942  19.046  0.00  0.00    -0.196 NA
ATOM      9  C   UNL     1       7.515   6.448  18.117  0.00  0.00    +0.224 A 
ATOM     10  N   UNL     1       7.991   6.934  16.855  0.00  0.00    -0.283 N 
ATOM     11  H   UNL     1       7.287   7.041  16.088  0.00  0.00    +0.155 HD
ATOM     12  N   UNL     1       6.170   6.462  18.376  0.00  0.00    -0.178 NA
ENDROOT
BRANCH   3  13
ATOM     13  C   UNL     1       5.153   4.637  22.488  0.00  0.00    -0.013 A 
ATOM     14  C   UNL     1       4.455   5.686  23.104  0.00  0.00    +0.028 A 
ATOM     15  C   UNL     1       3.280   5.412  23.808  0.00  0.00    +0.111 A 
ATOM     16  N   UNL     1       2.826   4.134  23.907  0.00  0.00    -0.263 NA
ATOM     17  C   UNL     1       3.495   3.094  23.342  0.00  0.00    +0.111 A 
ATOM     18  C   UNL     1       4.675   3.326  22.630  0.00  0.00    +0.028 A 
ENDBRANCH   3  13
BRANCH  10  19
ATOM     19  C   UNL     1       9.368   7.210  16.550  0.00  0.00    +0.034 A 
ATOM     20  C   UNL     1      10.412   6.447  17.100  0.00  0.00    +0.025 A 
ATOM     21  C   UNL     1      11.744   6.760  16.814  0.00  0.00    +0.025 A 
ATOM     22  C   UNL     1      12.059   7.858  15.995  0.00  0.00    +0.030 A 
ATOM     23  C   UNL     1      11.014   8.633  15.466  0.00  0.00    +0.025 A 
ATOM     24  C   UNL     1       9.683   8.315  15.747  0.00  0.00    +0.025 A 
BRANCH  22  25
ATOM     25  N   UNL     1      13.432   8.175  15.690  0.00  0.00    -0.326 N 
ATOM     26  C   UNL     1      14.456   7.123  15.808  0.00  0.00    +0.133 C 
ATOM     27  C   UNL     1      15.733   7.423  14.982  0.00  0.00    +0.178 C 
ATOM     28  O   UNL     1      15.666   8.626  14.242  0.00  0.00    -0.377 OA
ATOM     29  C   UNL     1      15.285   9.683  15.092  0.00  0.00    +0.178 C 
ATOM     30  C   UNL     1      13.796   9.567  15.387  0.00  0.00    +0.133 C 
ENDBRANCH  22  25
ENDBRANCH  10  19
BRANCH   1  31
ATOM     31  O   UNL     1       4.282   6.055  19.833  0.00  0.00    -0.437 OA
BRANCH  31  36
ATOM     32  C   UNL     1       2.724   9.182  18.605  0.00  0.00    +0.037 A 
ATOM     33  C   UNL     1       1.867   9.497  19.671  0.00  0.00    +0.023 A 
ATOM     34  C   UNL     1       1.803   8.672  20.796  0.00  0.00    +0.005 A 
ATOM     35  C   UNL     1       2.592   7.523  20.871  0.00  0.00    +0.046 A 
ATOM     36  C   UNL     1       3.467   7.197  19.818  0.00  0.00    +0.132 A 
ATOM     37  C   UNL     1       3.504   8.013  18.681  0.00  0.00    +0.069 A 
BRANCH  32  39
ATOM     38  C   UNL     1       3.877  10.755  16.973  0.00  0.00    +0.241 C 
ATOM     39  N   UNL     1       2.733  10.022  17.436  0.00  0.00    -0.282 N 
ATOM     40  H   UNL     1       1.829  10.173  16.932  0.00  0.00    +0.155 HD
ATOM     41  O   UNL     1       4.868  10.942  17.735  0.00  0.00    -0.271 OA
BRANCH  38  43
ATOM     42  C   UNL     1       2.771  11.900  15.089  0.00  0.00    +0.013 C 
ATOM     43  C   UNL     1       3.862  11.342  15.620  0.00  0.00    +0.060 C 
ENDBRANCH  38  43
ENDBRANCH  32  39
ENDBRANCH  31  36
ENDBRANCH   1  31
TORSDOF 7
ENDMDL
MODEL 4
REMARK VINA RESULT:    -9.078      4.830      7.100
REMARK INTER + INTRA:         -14.104
REMARK INTER:                 -12.311
REMARK INTRA:                  -1.794
REMARK UNBOUND:                -1.312
REMARK  Name = 
REMARK  7 active torsions:
REMARK  status: ('A' for Active; 'I' for Inactive)
REMARK    1  A    between atoms: C_2  and  C_3
REMARK    2  A    between atoms: N_5  and  C_6
REMARK    3  A    between atoms: C_8  and  O_12
REMARK    4  A    between atoms: O_12  and  C_13
REMARK    5  A    between atoms: C_19  and  C_22
REMARK    6  A    between atoms: N_28  and  C_29
REMARK    7  A    between atoms: C_32  and  N_35
REMARK                            x       y       z     vdW  Elec       q    Type
REMARK                         _______ _______ _______ _____ _____    ______ ____
ROOT
ATOM      1  C   UNL     1       5.615   8.454  18.822  0.00  0.00    +0.235 A 
ATOM      2  C   UNL     1       5.487   7.107  18.490  0.00  0.00    +0.088 A 
ATOM      3  C   UNL     1       4.460   6.183  18.611  0.00  0.00    +0.014 A 
ATOM      4  C   UNL     1       4.992   4.977  18.155  0.00  0.00    +0.093 A 
ATOM      5  N   UNL     1       6.273   5.142  17.754  0.00  0.00    -0.345 N 
ATOM      6  H   UNL     1       6.908   4.413  17.363  0.00  0.00    +0.167 HD
ATOM      7  C   UNL     1       6.552   6.437  17.965  0.00  0.00    +0.148 A 
ATOM      8  N   UNL     1       7.735   7.047  17.710  0.00  0.00    -0.196 NA
ATOM      9  C   UNL     1       7.863   8.377  18.005  0.00  0.00    +0.224 A 
ATOM     10  N   UNL     1       9.082   9.078  17.726  0.00  0.00    -0.283 N 
ATOM     11  H   UNL     1       9.038  10.123  17.701  0.00  0.00    +0.155 HD
ATOM     12  N   UNL     1       6.805   9.063  18.542  0.00  0.00    -0.178 NA
ENDROOT
BRANCH   3  13
ATOM     13  C   UNL     1       3.078   6.399  19.083  0.00  0.00    -0.013 A 
ATOM     14  C   UNL     1       2.798   6.417  20.457  0.00  0.00    +0.028 A 
ATOM     15  C   UNL     1       1.485   6.619  20.889  0.00  0.00    +0.111 A 
ATOM     16  N   UNL     1       0.485   6.783  19.982  0.00  0.00    -0.263 NA
ATOM     17  C   UNL     1       0.723   6.746  18.645  0.00  0.00    +0.111 A 
ATOM     18  C   UNL     1       2.022   6.543  18.171  0.00  0.00    +0.028 A 
ENDBRANCH   3  13
BRANCH  10  19
ATOM     19  C   UNL     1      10.334   8.447  17.404  0.00  0.00    +0.034 A 
ATOM     20  C   UNL     1      10.917   8.573  16.132  0.00  0.00    +0.025 A 
ATOM     21  C   UNL     1      12.117   7.919  15.837  0.00  0.00    +0.025 A 
ATOM     22  C   UNL     1      12.742   7.107  16.798  0.00  0.00    +0.030 A 
ATOM     23  C   UNL     1      12.144   6.964  18.061  0.00  0.00    +0.025 A 
ATOM     24  C   UNL     1      10.948   7.623  18.357  0.00  0.00    +0.025 A 
BRANCH  22  25
ATOM     25  N   UNL     1      13.986   6.441  16.499  0.00  0.00    -0.326 N 
ATOM     26  C   UNL     1      13.965   5.021  16.111  0.00  0.00    +0.133 C 
ATOM     27  C   UNL     1      15.234   4.584  15.334  0.00  0.00    +0.178 C 
ATOM     28  O   UNL     1      16.156   5.633  15.111  0.00  0.00    -0.377 OA
ATOM     29  C   UNL     1      16.438   6.283  16.329  0.00  0.00    +0.178 C 
ATOM     30  C   UNL     1      15.252   7.159  16.706  0.00  0.00    +0.133 C 
ENDBRANCH  22  25
ENDBRANCH  10  19
BRANCH   1  31
ATOM     31  O   UNL     1       4.547   9.148  19.406  0.00  0.00    -0.437 OA
BRANCH  31  36
ATOM     32  C   UNL     1       2.782  10.945  16.692  0.00  0.00    +0.037 A 
ATOM     33  C   UNL     1       1.527  11.163  17.280  0.00  0.00    +0.023 A 
ATOM     34  C   UNL     1       1.264  10.711  18.574  0.00  0.00    +0.005 A 
ATOM     35  C   UNL     1       2.248  10.038  19.298  0.00  0.00    +0.046 A 
ATOM     36  C   UNL     1       3.518   9.820  18.731  0.00  0.00    +0.132 A 
ATOM     37  C   UNL     1       3.765  10.249  17.421  0.00  0.00    +0.069 A 
BRANCH  32  39
ATOM     38  C   UNL     1       3.106  12.748  14.927  0.00  0.00    +0.241 C 
ATOM     39  N   UNL     1       3.011  11.375  15.337  0.00  0.00    -0.282 N 
ATOM     40  H   UNL     1       3.032  10.647  14.587  0.00  0.00    +0.155 HD
ATOM     41  O   UNL     1       2.697  13.672  15.686  0.00  0.00    -0.271 OA
BRANCH  38  43
ATOM     42  C   UNL     1       3.258  12.400  12.490  0.00  0.00    +0.013 C 
ATOM     43  C   UNL     1       3.628  13.068  13.586  0.00  0.00    +0.060 C 
ENDBRANCH  38  43
ENDBRANCH  32  39
ENDBRANCH  31  36
ENDBRANCH   1  31
TORSDOF 7
ENDMDL
MODEL 5
REMARK VINA RESULT:    -8.937      3.979      6.462
REMARK INTER + INTRA:         -13.906
REMARK INTER:                 -12.314
REMARK INTRA:                  -1.592
REMARK UNBOUND:                -1.312
REMARK  Name = 
REMARK  7 active torsions:
REMARK  status: ('A' for Active; 'I' for Inactive)
REMARK    1  A    between atoms: C_2  and  C_3
REMARK    2  A    between atoms: N_5  and  C_6
REMARK    3  A    between atoms: C_8  and  O_12
REMARK    4  A    between atoms: O_12  and  C_13
REMARK    5  A    between atoms: C_19  and  C_22
REMARK    6  A    between atoms: N_28  and  C_29
REMARK    7  A    between atoms: C_32  and  N_35
REMARK                            x       y       z     vdW  Elec       q    Type
REMARK                         _______ _______ _______ _____ _____    ______ ____
ROOT
ATOM      1  C   UNL     1       8.436   6.854  18.874  0.00  0.00    +0.235 A 
ATOM      2  C   UNL     1       7.922   6.888  17.580  0.00  0.00    +0.088 A 
ATOM      3  C   UNL     1       6.640   6.979  17.060  0.00  0.00    +0.014 A 
ATOM      4  C   UNL     1       6.795   6.890  15.676  0.00  0.00    +0.093 A 
ATOM      5  N   UNL     1       8.102   6.770  15.349  0.00  0.00    -0.345 N 
ATOM      6  H   UNL     1       8.505   6.693  14.390  0.00  0.00    +0.167 HD
ATOM      7  C   UNL     1       8.766   6.771  16.515  0.00  0.00    +0.148 A 
ATOM      8  N   UNL     1      10.108   6.664  16.665  0.00  0.00    -0.196 NA
ATOM      9  C   UNL     1      10.627   6.660  17.931  0.00  0.00    +0.224 A 
ATOM     10  N   UNL     1      12.043   6.581  18.145  0.00  0.00    -0.283 N 
ATOM     11  H   UNL     1      12.400   6.863  19.088  0.00  0.00    +0.155 HD
ATOM     12  N   UNL     1       9.792   6.767  19.013  0.00  0.00    -0.178 NA
ENDROOT
BRANCH   3  13
ATOM     13  C   UNL     1       5.365   7.164  17.780  0.00  0.00    -0.013 A 
ATOM     14  C   UNL     1       4.448   6.107  17.874  0.00  0.00    +0.028 A 
ATOM     15  C   UNL     1       3.244   6.297  18.557  0.00  0.00    +0.111 A 
ATOM     16  N   UNL     1       2.958   7.505  19.112  0.00  0.00    -0.263 NA
ATOM     17  C   UNL     1       3.816   8.555  19.016  0.00  0.00    +0.111 A 
ATOM     18  C   UNL     1       5.030   8.406  18.339  0.00  0.00    +0.028 A 
ENDBRANCH   3  13
BRANCH  10  19
ATOM     19  C   UNL     1      13.003   6.218  17.140  0.00  0.00    +0.034 A 
ATOM     20  C   UNL     1      13.502   7.159  16.223  0.00  0.00    +0.025 A 
ATOM     21  C   UNL     1      14.408   6.769  15.233  0.00  0.00    +0.025 A 
ATOM     22  C   UNL     1      14.813   5.428  15.123  0.00  0.00    +0.030 A 
ATOM     23  C   UNL     1      14.295   4.485  16.026  0.00  0.00    +0.025 A 
ATOM     24  C   UNL     1      13.393   4.877  17.019  0.00  0.00    +0.025 A 
BRANCH  22  25
ATOM     25  N   UNL     1      15.757   5.027  14.110  0.00  0.00    -0.326 N 
ATOM     26  C   UNL     1      15.524   3.780  13.364  0.00  0.00    +0.133 C 
ATOM     27  C   UNL     1      16.273   3.733  12.007  0.00  0.00    +0.178 C 
ATOM     28  O   UNL     1      17.010   4.906  11.721  0.00  0.00    -0.377 OA
ATOM     29  C   UNL     1      17.842   5.220  12.813  0.00  0.00    +0.178 C 
ATOM     30  C   UNL     1      16.990   5.807  13.929  0.00  0.00    +0.133 C 
ENDBRANCH  22  25
ENDBRANCH  10  19
BRANCH   1  31
ATOM     31  O   UNL     1       7.581   6.926  19.982  0.00  0.00    -0.437 OA
BRANCH  31  36
ATOM     32  C   UNL     1       5.416   4.640  21.932  0.00  0.00    +0.037 A 
ATOM     33  C   UNL     1       6.367   3.770  22.486  0.00  0.00    +0.023 A 
ATOM     34  C   UNL     1       7.726   3.937  22.210  0.00  0.00    +0.005 A 
ATOM     35  C   UNL     1       8.152   4.975  21.381  0.00  0.00    +0.046 A 
ATOM     36  C   UNL     1       7.215   5.866  20.825  0.00  0.00    +0.132 A 
ATOM     37  C   UNL     1       5.852   5.674  21.082  0.00  0.00    +0.069 A 
BRANCH  32  39
ATOM     38  C   UNL     1       3.021   5.447  22.216  0.00  0.00    +0.241 C 
ATOM     39  N   UNL     1       4.018   4.414  22.191  0.00  0.00    -0.282 N 
ATOM     40  H   UNL     1       3.717   3.449  22.455  0.00  0.00    +0.155 HD
ATOM     41  O   UNL     1       3.360   6.661  22.307  0.00  0.00    -0.271 OA
BRANCH  38  43
ATOM     42  C   UNL     1       0.686   5.741  21.480  0.00  0.00    +0.013 C 
ATOM     43  C   UNL     1       1.594   5.076  22.199  0.00  0.00    +0.060 C 
ENDBRANCH  38  43
ENDBRANCH  32  39
ENDBRANCH  31  36
ENDBRANCH   1  31
TORSDOF 7
ENDMDL
MODEL 6
REMARK VINA RESULT:    -8.799      5.861      9.139
REMARK INTER + INTRA:         -13.712
REMARK INTER:                 -12.795
REMARK INTRA:                  -0.917
REMARK UNBOUND:                -1.312
REMARK  Name = 
REMARK  7 active torsions:
REMARK  status: ('A' for Active; 'I' for Inactive)
REMARK    1  A    between atoms: C_2  and  C_3
REMARK    2  A    between atoms: N_5  and  C_6
REMARK    3  A    between atoms: C_8  and  O_12
REMARK    4  A    between atoms: O_12  and  C_13
REMARK    5  A    between atoms: C_19  and  C_22
REMARK    6  A    between atoms: N_28  and  C_29
REMARK    7  A    between atoms: C_32  and  N_35
REMARK                            x       y       z     vdW  Elec       q    Type
REMARK                         _______ _______ _______ _____ _____    ______ ____
ROOT
ATOM      1  C   UNL     1       6.095   2.309  26.716  0.00  0.00    +0.235 A 
ATOM      2  C   UNL     1       7.101   2.595  25.796  0.00  0.00    +0.088 A 
ATOM      3  C   UNL     1       8.478   2.430  25.799  0.00  0.00    +0.014 A 
ATOM      4  C   UNL     1       8.920   2.988  24.599  0.00  0.00    +0.093 A 
ATOM      5  N   UNL     1       7.876   3.458  23.879  0.00  0.00    -0.345 N 
ATOM      6  H   UNL     1       7.914   3.917  22.942  0.00  0.00    +0.167 HD
ATOM      7  C   UNL     1       6.786   3.210  24.621  0.00  0.00    +0.148 A 
ATOM      8  N   UNL     1       5.510   3.521  24.287  0.00  0.00    -0.196 NA
ATOM      9  C   UNL     1       4.510   3.217  25.171  0.00  0.00    +0.224 A 
ATOM     10  N   UNL     1       3.140   3.497  24.854  0.00  0.00    -0.283 N 
ATOM     11  H   UNL     1       2.409   3.001  25.416  0.00  0.00    +0.155 HD
ATOM     12  N   UNL     1       4.811   2.608  26.360  0.00  0.00    -0.178 NA
ENDROOT
BRANCH   3  13
ATOM     13  C   UNL     1       9.326   1.778  26.817  0.00  0.00    -0.013 A 
ATOM     14  C   UNL     1       9.561   0.397  26.759  0.00  0.00    +0.028 A 
ATOM     15  C   UNL     1      10.364  -0.206  27.731  0.00  0.00    +0.111 A 
ATOM     16  N   UNL     1      10.900   0.541  28.733  0.00  0.00    -0.263 NA
ATOM     17  C   UNL     1      10.669   1.877  28.828  0.00  0.00    +0.111 A 
ATOM     18  C   UNL     1       9.870   2.518  27.877  0.00  0.00    +0.028 A 
ENDBRANCH   3  13
BRANCH  10  19
ATOM     19  C   UNL     1       2.705   4.344  23.777  0.00  0.00    +0.034 A 
ATOM     20  C   UNL     1       1.523   4.082  23.064  0.00  0.00    +0.025 A 
ATOM     21  C   UNL     1       1.143   4.902  21.998  0.00  0.00    +0.025 A 
ATOM     22  C   UNL     1       1.951   5.984  21.607  0.00  0.00    +0.030 A 
ATOM     23  C   UNL     1       3.144   6.229  22.306  0.00  0.00    +0.025 A 
ATOM     24  C   UNL     1       3.519   5.412  23.376  0.00  0.00    +0.025 A 
BRANCH  22  25
ATOM     25  N   UNL     1       1.554   6.838  20.515  0.00  0.00    -0.326 N 
ATOM     26  C   UNL     1       1.732   8.294  20.641  0.00  0.00    +0.133 C 
ATOM     27  C   UNL     1       1.770   9.022  19.273  0.00  0.00    +0.178 C 
ATOM     28  O   UNL     1       1.665   8.155  18.161  0.00  0.00    -0.377 OA
ATOM     29  C   UNL     1       0.545   7.315  18.320  0.00  0.00    +0.178 C 
ATOM     30  C   UNL     1       0.872   6.248  19.354  0.00  0.00    +0.133 C 
ENDBRANCH  22  25
ENDBRANCH  10  19
BRANCH   1  31
ATOM     31  O   UNL     1       6.405   1.720  27.949  0.00  0.00    -0.437 OA
BRANCH  31  36
ATOM     32  C   UNL     1       5.089   1.239  31.377  0.00  0.00    +0.037 A 
ATOM     33  C   UNL     1       4.722   2.550  31.715  0.00  0.00    +0.023 A 
ATOM     34  C   UNL     1       4.914   3.595  30.809  0.00  0.00    +0.005 A 
ATOM     35  C   UNL     1       5.473   3.345  29.555  0.00  0.00    +0.046 A 
ATOM     36  C   UNL     1       5.836   2.034  29.192  0.00  0.00    +0.132 A 
ATOM     37  C   UNL     1       5.668   0.996  30.117  0.00  0.00    +0.069 A 
BRANCH  32  39
ATOM     38  C   UNL     1       4.072  -0.952  32.176  0.00  0.00    +0.241 C 
ATOM     39  N   UNL     1       4.928   0.188  32.349  0.00  0.00    -0.282 N 
ATOM     40  H   UNL     1       5.402   0.298  33.274  0.00  0.00    +0.155 HD
ATOM     41  O   UNL     1       3.178  -0.951  31.282  0.00  0.00    -0.271 OA
BRANCH  38  43
ATOM     42  C   UNL     1       4.939  -2.054  34.205  0.00  0.00    +0.013 C 
ATOM     43  C   UNL     1       4.203  -2.100  33.091  0.00  0.00    +0.060 C 
ENDBRANCH  38  43
ENDBRANCH  32  39
ENDBRANCH  31  36
ENDBRANCH   1  31
TORSDOF 7
ENDMDL
MODEL 7
REMARK VINA RESULT:    -8.721      2.808      4.278
REMARK INTER + INTRA:         -13.602
REMARK INTER:                 -11.853
REMARK INTRA:                  -1.749
REMARK UNBOUND:                -1.312
REMARK  Name = 
REMARK  7 active torsions:
REMARK  status: ('A' for Active; 'I' for Inactive)
REMARK    1  A    between atoms: C_2  and  C_3
REMARK    2  A    between atoms: N_5  and  C_6
REMARK    3  A    between atoms: C_8  and  O_12
REMARK    4  A    between atoms: O_12  and  C_13
REMARK    5  A    between atoms: C_19  and  C_22
REMARK    6  A    between atoms: N_28  and  C_29
REMARK    7  A    between atoms: C_32  and  N_35
REMARK                            x       y       z     vdW  Elec       q    Type
REMARK                         _______ _______ _______ _____ _____    ______ ____
ROOT
ATOM      1  C   UNL     1       5.698   5.930  19.645  0.00  0.00    +0.235 A 
ATOM      2  C   UNL     1       6.525   5.741  20.750  0.00  0.00    +0.088 A 
ATOM      3  C   UNL     1       6.303   5.328  22.055  0.00  0.00    +0.014 A 
ATOM      4  C   UNL     1       7.543   5.419  22.688  0.00  0.00    +0.093 A 
ATOM      5  N   UNL     1       8.490   5.846  21.823  0.00  0.00    -0.345 N 
ATOM      6  H   UNL     1       9.503   5.996  22.023  0.00  0.00    +0.167 HD
ATOM      7  C   UNL     1       7.854   6.034  20.656  0.00  0.00    +0.148 A 
ATOM      8  N   UNL     1       8.419   6.468  19.504  0.00  0.00    -0.196 NA
ATOM      9  C   UNL     1       7.621   6.629  18.404  0.00  0.00    +0.224 A 
ATOM     10  N   UNL     1       8.174   7.056  17.151  0.00  0.00    -0.283 N 
ATOM     11  H   UNL     1       7.596   6.892  16.294  0.00  0.00    +0.155 HD
ATOM     12  N   UNL     1       6.282   6.348  18.483  0.00  0.00    -0.178 NA
ENDROOT
BRANCH   3  13
ATOM     13  C   UNL     1       5.047   4.855  22.670  0.00  0.00    -0.013 A 
ATOM     14  C   UNL     1       4.137   5.775  23.209  0.00  0.00    +0.028 A 
ATOM     15  C   UNL     1       2.953   5.313  23.791  0.00  0.00    +0.111 A 
ATOM     16  N   UNL     1       2.695   3.979  23.844  0.00  0.00    -0.263 NA
ATOM     17  C   UNL     1       3.570   3.063  23.351  0.00  0.00    +0.111 A 
ATOM     18  C   UNL     1       4.766   3.484  22.764  0.00  0.00    +0.028 A 
ENDBRANCH   3  13
BRANCH  10  19
ATOM     19  C   UNL     1       9.486   7.617  16.985  0.00  0.00    +0.034 A 
ATOM     20  C   UNL     1       9.707   9.004  17.039  0.00  0.00    +0.025 A 
ATOM     21  C   UNL     1      10.989   9.524  16.838  0.00  0.00    +0.025 A 
ATOM     22  C   UNL     1      12.068   8.672  16.553  0.00  0.00    +0.030 A 
ATOM     23  C   UNL     1      11.840   7.288  16.476  0.00  0.00    +0.025 A 
ATOM     24  C   UNL     1      10.560   6.768  16.683  0.00  0.00    +0.025 A 
BRANCH  22  25
ATOM     25  N   UNL     1      13.393   9.206  16.356  0.00  0.00    -0.326 N 
ATOM     26  C   UNL     1      14.558   8.326  16.546  0.00  0.00    +0.133 C 
ATOM     27  C   UNL     1      15.831   8.838  15.823  0.00  0.00    +0.178 C 
ATOM     28  O   UNL     1      15.630  10.029  15.088  0.00  0.00    -0.377 OA
ATOM     29  C   UNL     1      15.024  10.998  15.913  0.00  0.00    +0.178 C 
ATOM     30  C   UNL     1      13.555  10.643  16.091  0.00  0.00    +0.133 C 
ENDBRANCH  22  25
ENDBRANCH  10  19
BRANCH   1  31
ATOM     31  O   UNL     1       4.323   5.679  19.735  0.00  0.00    -0.437 OA
BRANCH  31  36
ATOM     32  C   UNL     1       1.317   7.175  18.172  0.00  0.00    +0.037 A 
ATOM     33  C   UNL     1       1.171   8.347  18.929  0.00  0.00    +0.023 A 
ATOM     34  C   UNL     1       2.065   8.640  19.960  0.00  0.00    +0.005 A 
ATOM     35  C   UNL     1       3.117   7.770  20.248  0.00  0.00    +0.046 A 
ATOM     36  C   UNL     1       3.288   6.594  19.492  0.00  0.00    +0.132 A 
ATOM     37  C   UNL     1       2.370   6.292  18.479  0.00  0.00    +0.069 A 
BRANCH  32  39
ATOM     38  C   UNL     1      -0.817   6.061  17.351  0.00  0.00    +0.241 C 
ATOM     39  N   UNL     1       0.351   6.870  17.148  0.00  0.00    -0.282 N 
ATOM     40  H   UNL     1       0.550   7.191  16.173  0.00  0.00    +0.155 HD
ATOM     41  O   UNL     1      -0.913   5.320  18.371  0.00  0.00    -0.271 OA
BRANCH  38  43
ATOM     42  C   UNL     1      -2.124   7.102  15.536  0.00  0.00    +0.013 C 
ATOM     43  C   UNL     1      -1.879   6.054  16.329  0.00  0.00    +0.060 C 
ENDBRANCH  38  43
ENDBRANCH  32  39
ENDBRANCH  31  36
ENDBRANCH   1  31
TORSDOF 7
ENDMDL
MODEL 8
REMARK VINA RESULT:    -8.702      3.739      8.764
REMARK INTER + INTRA:         -13.575
REMARK INTER:                 -11.530
REMARK INTRA:                  -2.045
REMARK UNBOUND:                -1.312
REMARK  Name = 
REMARK  7 active torsions:
REMARK  status: ('A' for Active; 'I' for Inactive)
REMARK    1  A    between atoms: C_2  and  C_3
REMARK    2  A    between atoms: N_5  and  C_6
REMARK    3  A    between atoms: C_8  and  O_12
REMARK    4  A    between atoms: O_12  and  C_13
REMARK    5  A    between atoms: C_19  and  C_22
REMARK    6  A    between atoms: N_28  and  C_29
REMARK    7  A    between atoms: C_32  and  N_35
REMARK                            x       y       z     vdW  Elec       q    Type
REMARK                         _______ _______ _______ _____ _____    ______ ____
ROOT
ATOM      1  C   UNL     1       7.463   4.271  22.073  0.00  0.00    +0.235 A 
ATOM      2  C   UNL     1       8.444   5.207  21.754  0.00  0.00    +0.088 A 
ATOM      3  C   UNL     1       8.517   6.244  20.837  0.00  0.00    +0.014 A 
ATOM      4  C   UNL     1       9.806   6.763  20.967  0.00  0.00    +0.093 A 
ATOM      5  N   UNL     1      10.493   6.099  21.925  0.00  0.00    -0.345 N 
ATOM      6  H   UNL     1      11.472   6.280  22.236  0.00  0.00    +0.167 HD
ATOM      7  C   UNL     1       9.650   5.163  22.388  0.00  0.00    +0.148 A 
ATOM      8  N   UNL     1       9.924   4.259  23.359  0.00  0.00    -0.196 NA
ATOM      9  C   UNL     1       8.957   3.353  23.701  0.00  0.00    +0.224 A 
ATOM     10  N   UNL     1       9.183   2.395  24.744  0.00  0.00    -0.283 N 
ATOM     11  H   UNL     1       8.341   1.928  25.154  0.00  0.00    +0.155 HD
ATOM     12  N   UNL     1       7.742   3.378  23.067  0.00  0.00    -0.178 NA
ENDROOT
BRANCH   3  13
ATOM     13  C   UNL     1       7.469   6.745  19.927  0.00  0.00    -0.013 A 
ATOM     14  C   UNL     1       7.265   6.132  18.682  0.00  0.00    +0.028 A 
ATOM     15  C   UNL     1       6.270   6.618  17.830  0.00  0.00    +0.111 A 
ATOM     16  N   UNL     1       5.517   7.687  18.200  0.00  0.00    -0.263 NA
ATOM     17  C   UNL     1       5.708   8.317  19.389  0.00  0.00    +0.111 A 
ATOM     18  C   UNL     1       6.694   7.863  20.270  0.00  0.00    +0.028 A 
ENDBRANCH   3  13
BRANCH  10  19
ATOM     19  C   UNL     1      10.468   2.091  25.312  0.00  0.00    +0.034 A 
ATOM     20  C   UNL     1      11.256   1.033  24.829  0.00  0.00    +0.025 A 
ATOM     21  C   UNL     1      12.486   0.738  25.424  0.00  0.00    +0.025 A 
ATOM     22  C   UNL     1      12.939   1.478  26.529  0.00  0.00    +0.030 A 
ATOM     23  C   UNL     1      12.139   2.520  27.025  0.00  0.00    +0.025 A 
ATOM     24  C   UNL     1      10.912   2.818  26.425  0.00  0.00    +0.025 A 
BRANCH  22  25
ATOM     25  N   UNL     1      14.213   1.182  27.136  0.00  0.00    -0.326 N 
ATOM     26  C   UNL     1      14.467   1.615  28.521  0.00  0.00    +0.133 C 
ATOM     27  C   UNL     1      15.601   0.815  29.210  0.00  0.00    +0.178 C 
ATOM     28  O   UNL     1      16.157  -0.203  28.400  0.00  0.00    -0.377 OA
ATOM     29  C   UNL     1      16.526   0.335  27.151  0.00  0.00    +0.178 C 
ATOM     30  C   UNL     1      15.270   0.565  26.322  0.00  0.00    +0.133 C 
ENDBRANCH  22  25
ENDBRANCH  10  19
BRANCH   1  31
ATOM     31  O   UNL     1       6.234   4.271  21.400  0.00  0.00    -0.437 OA
BRANCH  31  36
ATOM     32  C   UNL     1       2.910   5.897  21.263  0.00  0.00    +0.037 A 
ATOM     33  C   UNL     1       2.601   6.003  22.627  0.00  0.00    +0.023 A 
ATOM     34  C   UNL     1       3.492   5.532  23.594  0.00  0.00    +0.005 A 
ATOM     35  C   UNL     1       4.702   4.951  23.211  0.00  0.00    +0.046 A 
ATOM     36  C   UNL     1       5.036   4.847  21.847  0.00  0.00    +0.132 A 
ATOM     37  C   UNL     1       4.124   5.294  20.884  0.00  0.00    +0.069 A 
BRANCH  32  39
ATOM     38  C   UNL     1       1.870   7.686  19.784  0.00  0.00    +0.241 C 
ATOM     39  N   UNL     1       1.951   6.344  20.286  0.00  0.00    -0.282 N 
ATOM     40  H   UNL     1       1.214   5.669  19.977  0.00  0.00    +0.155 HD
ATOM     41  O   UNL     1       2.446   8.632  20.393  0.00  0.00    -0.271 OA
BRANCH  38  43
ATOM     42  C   UNL     1       0.354   7.017  17.957  0.00  0.00    +0.013 C 
ATOM     43  C   UNL     1       1.055   7.964  18.587  0.00  0.00    +0.060 C 
ENDBRANCH  38  43
ENDBRANCH  32  39
ENDBRANCH  31  36
ENDBRANCH   1  31
TORSDOF 7
ENDMDL
MODEL 9
REMARK VINA RESULT:    -8.644      3.107     10.836
REMARK INTER + INTRA:         -13.492
REMARK INTER:                 -12.696
REMARK INTRA:                  -0.797
REMARK UNBOUND:                -1.312
REMARK  Name = 
REMARK  7 active torsions:
REMARK  status: ('A' for Active; 'I' for Inactive)
REMARK    1  A    between atoms: C_2  and  C_3
REMARK    2  A    between atoms: N_5  and  C_6
REMARK    3  A    between atoms: C_8  and  O_12
REMARK    4  A    between atoms: O_12  and  C_13
REMARK    5  A    between atoms: C_19  and  C_22
REMARK    6  A    between atoms: N_28  and  C_29
REMARK    7  A    between atoms: C_32  and  N_35
REMARK                            x       y       z     vdW  Elec       q    Type
REMARK                         _______ _______ _______ _____ _____    ______ ____
ROOT
ATOM      1  C   UNL     1       4.869   5.877  21.829  0.00  0.00    +0.235 A 
ATOM      2  C   UNL     1       3.610   5.405  22.191  0.00  0.00    +0.088 A 
ATOM      3  C   UNL     1       2.319   5.704  21.783  0.00  0.00    +0.014 A 
ATOM      4  C   UNL     1       1.486   4.928  22.588  0.00  0.00    +0.093 A 
ATOM      5  N   UNL     1       2.216   4.171  23.439  0.00  0.00    -0.345 N 
ATOM      6  H   UNL     1       1.855   3.494  24.146  0.00  0.00    +0.167 HD
ATOM      7  C   UNL     1       3.497   4.474  23.182  0.00  0.00    +0.148 A 
ATOM      8  N   UNL     1       4.579   3.952  23.810  0.00  0.00    -0.196 NA
ATOM      9  C   UNL     1       5.822   4.388  23.441  0.00  0.00    +0.224 A 
ATOM     10  N   UNL     1       7.002   3.845  24.051  0.00  0.00    -0.283 N 
ATOM     11  H   UNL     1       7.909   3.994  23.552  0.00  0.00    +0.155 HD
ATOM     12  N   UNL     1       5.953   5.329  22.454  0.00  0.00    -0.178 NA
ENDROOT
BRANCH   3  13
ATOM     13  C   UNL     1       1.882   6.617  20.708  0.00  0.00    -0.013 A 
ATOM     14  C   UNL     1       1.225   6.110  19.577  0.00  0.00    +0.028 A 
ATOM     15  C   UNL     1       0.819   6.985  18.567  0.00  0.00    +0.111 A 
ATOM     16  N   UNL     1       1.073   8.317  18.674  0.00  0.00    -0.263 NA
ATOM     17  C   UNL     1       1.730   8.833  19.746  0.00  0.00    +0.111 A 
ATOM     18  C   UNL     1       2.155   7.991  20.778  0.00  0.00    +0.028 A 
ENDBRANCH   3  13
BRANCH  10  19
ATOM     19  C   UNL     1       7.012   3.054  25.251  0.00  0.00    +0.034 A 
ATOM     20  C   UNL     1       5.822   2.677  25.896  0.00  0.00    +0.025 A 
ATOM     21  C   UNL     1       5.864   1.937  27.081  0.00  0.00    +0.025 A 
ATOM     22  C   UNL     1       7.095   1.582  27.658  0.00  0.00    +0.030 A 
ATOM     23  C   UNL     1       8.283   1.981  27.024  0.00  0.00    +0.025 A 
ATOM     24  C   UNL     1       8.240   2.715  25.836  0.00  0.00    +0.025 A 
BRANCH  22  25
ATOM     25  N   UNL     1       7.140   0.809  28.874  0.00  0.00    -0.326 N 
ATOM     26  C   UNL     1       6.289   1.205  30.009  0.00  0.00    +0.133 C 
ATOM     27  C   UNL     1       6.035   0.050  31.011  0.00  0.00    +0.178 C 
ATOM     28  O   UNL     1       6.633  -1.175  30.635  0.00  0.00    -0.377 OA
ATOM     29  C   UNL     1       7.997  -0.968  30.349  0.00  0.00    +0.178 C 
ATOM     30  C   UNL     1       8.119  -0.281  28.996  0.00  0.00    +0.133 C 
ENDBRANCH  22  25
ENDBRANCH  10  19
BRANCH   1  31
ATOM     31  O   UNL     1       5.002   6.867  20.846  0.00  0.00    -0.437 OA
BRANCH  31  36
ATOM     32  C   UNL     1       7.024   7.199  17.762  0.00  0.00    +0.037 A 
ATOM     33  C   UNL     1       6.326   6.355  16.885  0.00  0.00    +0.023 A 
ATOM     34  C   UNL     1       5.187   5.672  17.317  0.00  0.00    +0.005 A 
ATOM     35  C   UNL     1       4.730   5.824  18.626  0.00  0.00    +0.046 A 
ATOM     36  C   UNL     1       5.410   6.676  19.518  0.00  0.00    +0.132 A 
ATOM     37  C   UNL     1       6.568   7.333  19.087  0.00  0.00    +0.069 A 
BRANCH  32  39
ATOM     38  C   UNL     1       9.483   7.187  17.112  0.00  0.00    +0.241 C 
ATOM     39  N   UNL     1       8.225   7.851  17.307  0.00  0.00    -0.282 N 
ATOM     40  H   UNL     1       8.205   8.889  17.185  0.00  0.00    +0.155 HD
ATOM     41  O   UNL     1       9.689   6.045  17.613  0.00  0.00    -0.271 OA
BRANCH  38  43
ATOM     42  C   UNL     1      11.836   7.492  16.435  0.00  0.00    +0.013 C 
ATOM     43  C   UNL     1      10.558   7.876  16.373  0.00  0.00    +0.060 C 
ENDBRANCH  38  43
ENDBRANCH  32  39
ENDBRANCH  31  36
ENDBRANCH   1  31
TORSDOF 7
ENDMDL
