MODEL 1
REMARK VINA RESULT:    -9.338      0.000      0.000
REMARK INTER + INTRA:         -12.074
REMARK INTER:                 -11.522
REMARK INTRA:                  -0.552
REMARK UNBOUND:                -0.552
REMARK  Name = 
REMARK  4 active torsions:
REMARK  status: ('A' for Active; 'I' for Inactive)
REMARK    1  A    between atoms: C_2  and  C_3
REMARK    2  A    between atoms: C_9  and  N_11
REMARK    3  A    between atoms: C_21  and  C_23
REMARK    4  A    between atoms: C_26  and  C_28
REMARK                            x       y       z     vdW  Elec       q    Type
REMARK                         _______ _______ _______ _____ _____    ______ ____
ROOT
ATOM      1  N   UNL     1       3.909   5.641  20.989  0.00  0.00    -0.307 N 
ATOM      2  C   UNL     1       5.234   5.315  20.986  0.00  0.00    +0.204 A 
ATOM      3  N   UNL     1       6.138   5.641  19.925  0.00  0.00    -0.251 N 
ATOM      4  H   UNL     1       6.755   4.880  19.564  0.00  0.00    +0.158 HD
ATOM      5  C   UNL     1       6.403   6.995  19.533  0.00  0.00    +0.257 C 
ATOM      6  O   UNL     1       6.010   7.948  20.259  0.00  0.00    -0.269 OA
ATOM      7  N   UNL     1       5.628   4.590  22.063  0.00  0.00    -0.214 NA
ATOM      8  C   UNL     1       4.496   4.480  22.779  0.00  0.00    +0.091 A 
ATOM      9  C   UNL     1       4.327   3.811  23.989  0.00  0.00    +0.030 A 
ATOM     10  C   UNL     1       3.039   3.786  24.552  0.00  0.00    +0.002 A 
ATOM     11  C   UNL     1       1.960   4.415  23.894  0.00  0.00    +0.002 A 
ATOM     12  C   UNL     1       2.161   5.079  22.669  0.00  0.00    +0.028 A 
ATOM     13  C   UNL     1       3.458   5.102  22.143  0.00  0.00    +0.070 A 
ENDROOT
BRANCH   1  17
ATOM     14  C   UNL     1       2.306   9.828  18.935  0.00  0.00    +0.239 C 
ATOM     15  N   UNL     1       2.080   8.432  19.230  0.00  0.00    -0.296 N 
ATOM     16  C   UNL     1       2.847   7.782  20.304  0.00  0.00    +0.133 C 
ATOM     17  C   UNL     1       3.149   6.320  19.924  0.00  0.00    +0.108 C 
ATOM     18  C   UNL     1       1.883   5.515  19.522  0.00  0.00    +0.028 C 
ATOM     19  C   UNL     1       0.648   6.399  19.299  0.00  0.00    +0.021 C 
ATOM     20  C   UNL     1       0.999   7.693  18.555  0.00  0.00    +0.108 C 
ATOM     21  O   UNL     1       2.923  10.549  19.767  0.00  0.00    -0.271 OA
BRANCH  14  23
ATOM     22  C   UNL     1       0.895  11.378  17.635  0.00  0.00    +0.013 C 
ATOM     23  C   UNL     1       1.830  10.429  17.666  0.00  0.00    +0.060 C 
ENDBRANCH  14  23
ENDBRANCH   1  17
BRANCH   5  24
ATOM     24  C   UNL     1       7.137   7.287  18.291  0.00  0.00    +0.075 A 
ATOM     25  S   UNL     1       8.479   8.295  18.156  0.00  0.00    -0.084 S 
ATOM     26  C   UNL     1       8.716   8.057  16.506  0.00  0.00    +0.023 A 
ATOM     27  C   UNL     1       7.744   7.178  16.041  0.00  0.00    +0.017 A 
ATOM     28  C   UNL     1       6.863   6.745  17.040  0.00  0.00    +0.021 A 
BRANCH  26  29
ATOM     29  C   UNL     1       9.780   8.678  15.703  0.00  0.00    +0.026 A 
ATOM     30  C   UNL     1       9.904   8.666  14.327  0.00  0.00    +0.143 A 
ATOM     31  N   UNL     1      11.016   9.345  13.979  0.00  0.00    -0.182 NA
ATOM     32  N   UNL     1      11.591   9.780  15.089  0.00  0.00    -0.284 N 
ATOM     33  H   UNL     1      12.473  10.338  15.114  0.00  0.00    +0.188 HD
ATOM     34  C   UNL     1      10.870   9.394  16.156  0.00  0.00    +0.114 A 
ENDBRANCH  26  29
ENDBRANCH   5  24
TORSDOF 4
ENDMDL
MODEL 2
REMARK VINA RESULT:    -8.735      2.933      5.992
REMARK INTER + INTRA:         -11.330
REMARK INTER:                 -10.691
REMARK INTRA:                  -0.639
REMARK UNBOUND:                -0.552
REMARK  Name = 
REMARK  4 active torsions:
REMARK  status: ('A' for Active; 'I' for Inactive)
REMARK    1  A    between atoms: C_2  and  C_3
REMARK    2  A    between atoms: C_9  and  N_11
REMARK    3  A    between atoms: C_21  and  C_23
REMARK    4  A    between atoms: C_26  and  C_28
REMARK                            x       y       z     vdW  Elec       q    Type
REMARK                         _______ _______ _______ _____ _____    ______ ____
ROOT
ATOM      1  N   UNL     1       4.175   7.095  20.982  0.00  0.00    -0.307 N 
ATOM      2  C   UNL     1       2.884   7.535  20.988  0.00  0.00    +0.204 A 
ATOM      3  N   UNL     1       2.406   8.630  20.200  0.00  0.00    -0.251 N 
ATOM      4  H   UNL     1       1.830   9.358  20.680  0.00  0.00    +0.158 HD
ATOM      5  C   UNL     1       2.467   8.627  18.766  0.00  0.00    +0.257 C 
ATOM      6  O   UNL     1       2.748   7.562  18.152  0.00  0.00    -0.269 OA
ATOM      7  N   UNL     1       2.080   6.880  21.862  0.00  0.00    -0.214 NA
ATOM      8  C   UNL     1       2.909   5.974  22.409  0.00  0.00    +0.091 A 
ATOM      9  C   UNL     1       2.601   5.037  23.392  0.00  0.00    +0.030 A 
ATOM     10  C   UNL     1       3.636   4.205  23.854  0.00  0.00    +0.002 A 
ATOM     11  C   UNL     1       4.942   4.336  23.335  0.00  0.00    +0.002 A 
ATOM     12  C   UNL     1       5.224   5.296  22.345  0.00  0.00    +0.028 A 
ATOM     13  C   UNL     1       4.169   6.097  21.892  0.00  0.00    +0.070 A 
ENDROOT
BRANCH   1  17
ATOM     14  C   UNL     1       6.950   7.189  16.906  0.00  0.00    +0.239 C 
ATOM     15  N   UNL     1       6.857   7.337  18.341  0.00  0.00    -0.296 N 
ATOM     16  C   UNL     1       5.714   6.754  19.060  0.00  0.00    +0.133 C 
ATOM     17  C   UNL     1       5.315   7.662  20.237  0.00  0.00    +0.108 C 
ATOM     18  C   UNL     1       6.501   8.005  21.179  0.00  0.00    +0.028 C 
ATOM     19  C   UNL     1       7.868   7.625  20.595  0.00  0.00    +0.021 C 
ATOM     20  C   UNL     1       7.960   7.950  19.099  0.00  0.00    +0.108 C 
ATOM     21  O   UNL     1       6.234   6.330  16.321  0.00  0.00    -0.271 OA
BRANCH  14  23
ATOM     22  C   UNL     1       8.374   7.632  14.942  0.00  0.00    +0.013 C 
ATOM     23  C   UNL     1       7.869   8.034  16.108  0.00  0.00    +0.060 C 
ENDBRANCH  14  23
ENDBRANCH   1  17
BRANCH   5  24
ATOM     24  C   UNL     1       2.200   9.855  18.001  0.00  0.00    +0.075 A 
ATOM     25  S   UNL     1       3.257  10.585  16.913  0.00  0.00    -0.084 S 
ATOM     26  C   UNL     1       2.223  11.839  16.472  0.00  0.00    +0.023 A 
ATOM     27  C   UNL     1       1.030  11.696  17.172  0.00  0.00    +0.017 A 
ATOM     28  C   UNL     1       1.016  10.585  18.025  0.00  0.00    +0.021 A 
BRANCH  26  29
ATOM     29  C   UNL     1       2.539  12.898  15.502  0.00  0.00    +0.026 A 
ATOM     30  C   UNL     1       1.744  13.971  15.147  0.00  0.00    +0.143 A 
ATOM     31  N   UNL     1       2.391  14.714  14.226  0.00  0.00    -0.182 NA
ATOM     32  N   UNL     1       3.562  14.141  13.992  0.00  0.00    -0.284 N 
ATOM     33  H   UNL     1       4.269  14.507  13.319  0.00  0.00    +0.188 HD
ATOM     34  C   UNL     1       3.687  13.036  14.748  0.00  0.00    +0.114 A 
ENDBRANCH  26  29
ENDBRANCH   5  24
TORSDOF 4
ENDMDL
MODEL 3
REMARK VINA RESULT:    -8.676      2.395      5.118
REMARK INTER + INTRA:         -11.256
REMARK INTER:                 -10.720
REMARK INTRA:                  -0.536
REMARK UNBOUND:                -0.552
REMARK  Name = 
REMARK  4 active torsions:
REMARK  status: ('A' for Active; 'I' for Inactive)
REMARK    1  A    between atoms: C_2  and  C_3
REMARK    2  A    between atoms: C_9  and  N_11
REMARK    3  A    between atoms: C_21  and  C_23
REMARK    4  A    between atoms: C_26  and  C_28
REMARK                            x       y       z     vdW  Elec       q    Type
REMARK                         _______ _______ _______ _____ _____    ______ ____
ROOT
ATOM      1  N   UNL     1       4.436   6.643  19.973  0.00  0.00    -0.307 N 
ATOM      2  C   UNL     1       4.043   6.966  18.707  0.00  0.00    +0.204 A 
ATOM      3  N   UNL     1       4.932   7.427  17.684  0.00  0.00    -0.251 N 
ATOM      4  H   UNL     1       4.651   8.277  17.146  0.00  0.00    +0.158 HD
ATOM      5  C   UNL     1       6.032   6.637  17.211  0.00  0.00    +0.257 C 
ATOM      6  O   UNL     1       6.117   5.421  17.534  0.00  0.00    -0.269 OA
ATOM      7  N   UNL     1       2.706   6.872  18.502  0.00  0.00    -0.214 NA
ATOM      8  C   UNL     1       2.250   6.448  19.693  0.00  0.00    +0.091 A 
ATOM      9  C   UNL     1       0.927   6.197  20.046  0.00  0.00    +0.030 A 
ATOM     10  C   UNL     1       0.664   5.796  21.368  0.00  0.00    +0.002 A 
ATOM     11  C   UNL     1       1.719   5.666  22.297  0.00  0.00    +0.002 A 
ATOM     12  C   UNL     1       3.047   5.932  21.911  0.00  0.00    +0.028 A 
ATOM     13  C   UNL     1       3.278   6.312  20.584  0.00  0.00    +0.070 A 
ENDROOT
BRANCH   1  17
ATOM     14  C   UNL     1       8.234   4.513  22.288  0.00  0.00    +0.239 C 
ATOM     15  N   UNL     1       7.438   5.695  22.051  0.00  0.00    -0.296 N 
ATOM     16  C   UNL     1       6.087   5.561  21.484  0.00  0.00    +0.133 C 
ATOM     17  C   UNL     1       5.790   6.747  20.547  0.00  0.00    +0.108 C 
ATOM     18  C   UNL     1       6.024   8.130  21.213  0.00  0.00    +0.028 C 
ATOM     19  C   UNL     1       6.777   8.041  22.548  0.00  0.00    +0.021 C 
ATOM     20  C   UNL     1       7.916   7.016  22.493  0.00  0.00    +0.108 C 
ATOM     21  O   UNL     1       7.679   3.379  22.292  0.00  0.00    -0.271 OA
BRANCH  14  23
ATOM     22  C   UNL     1      10.238   4.409  23.722  0.00  0.00    +0.013 C 
ATOM     23  C   UNL     1       9.694   4.607  22.521  0.00  0.00    +0.060 C 
ENDBRANCH  14  23
ENDBRANCH   1  17
BRANCH   5  24
ATOM     24  C   UNL     1       7.065   7.230  16.346  0.00  0.00    +0.075 A 
ATOM     25  S   UNL     1       8.543   7.849  16.862  0.00  0.00    -0.084 S 
ATOM     26  C   UNL     1       9.107   8.265  15.331  0.00  0.00    +0.023 A 
ATOM     27  C   UNL     1       8.142   7.917  14.393  0.00  0.00    +0.017 A 
ATOM     28  C   UNL     1       7.001   7.335  14.960  0.00  0.00    +0.021 A 
BRANCH  26  29
ATOM     29  C   UNL     1      10.410   8.886  15.046  0.00  0.00    +0.026 A 
ATOM     30  C   UNL     1      11.281   9.457  15.955  0.00  0.00    +0.143 A 
ATOM     31  N   UNL     1      12.364   9.916  15.298  0.00  0.00    -0.182 NA
ATOM     32  N   UNL     1      12.201   9.654  14.010  0.00  0.00    -0.284 N 
ATOM     33  H   UNL     1      12.891   9.902  13.269  0.00  0.00    +0.188 HD
ATOM     34  C   UNL     1      11.025   9.029  13.820  0.00  0.00    +0.114 A 
ENDBRANCH  26  29
ENDBRANCH   5  24
TORSDOF 4
ENDMDL
MODEL 4
REMARK VINA RESULT:    -8.669      2.538      2.792
REMARK INTER + INTRA:         -11.248
REMARK INTER:                 -11.596
REMARK INTRA:                   0.349
REMARK UNBOUND:                -0.552
REMARK  Name = 
REMARK  4 active torsions:
REMARK  status: ('A' for Active; 'I' for Inactive)
REMARK    1  A    between atoms: C_2  and  C_3
REMARK    2  A    between atoms: C_9  and  N_11
REMARK    3  A    between atoms: C_21  and  C_23
REMARK    4  A    between atoms: C_26  and  C_28
REMARK                            x       y       z     vdW  Elec       q    Type
REMARK                         _______ _______ _______ _____ _____    ______ ____
ROOT
ATOM      1  N   UNL     1       5.194   5.279  21.645  0.00  0.00    -0.307 N 
ATOM      2  C   UNL     1       6.334   4.539  21.759  0.00  0.00    +0.204 A 
ATOM      3  N   UNL     1       7.439   4.622  20.853  0.00  0.00    -0.251 N 
ATOM      4  H   UNL     1       7.830   3.726  20.483  0.00  0.00    +0.158 HD
ATOM      5  C   UNL     1       8.172   5.838  20.647  0.00  0.00    +0.257 C 
ATOM      6  O   UNL     1       7.997   6.816  21.424  0.00  0.00    -0.269 OA
ATOM      7  N   UNL     1       6.318   3.653  22.787  0.00  0.00    -0.214 NA
ATOM      8  C   UNL     1       5.118   3.872  23.350  0.00  0.00    +0.091 A 
ATOM      9  C   UNL     1       4.573   3.214  24.451  0.00  0.00    +0.030 A 
ATOM     10  C   UNL     1       3.276   3.574  24.855  0.00  0.00    +0.002 A 
ATOM     11  C   UNL     1       2.558   4.565  24.150  0.00  0.00    +0.002 A 
ATOM     12  C   UNL     1       3.133   5.208  23.039  0.00  0.00    +0.028 A 
ATOM     13  C   UNL     1       4.433   4.841  22.672  0.00  0.00    +0.070 A 
ENDROOT
BRANCH   1  17
ATOM     14  C   UNL     1       2.404   9.021  20.054  0.00  0.00    +0.239 C 
ATOM     15  N   UNL     1       3.145   7.818  19.753  0.00  0.00    -0.296 N 
ATOM     16  C   UNL     1       3.468   6.872  20.832  0.00  0.00    +0.133 C 
ATOM     17  C   UNL     1       4.850   6.240  20.581  0.00  0.00    +0.108 C 
ATOM     18  C   UNL     1       4.989   5.607  19.170  0.00  0.00    +0.028 C 
ATOM     19  C   UNL     1       3.849   5.992  18.217  0.00  0.00    +0.021 C 
ATOM     20  C   UNL     1       3.463   7.469  18.357  0.00  0.00    +0.108 C 
ATOM     21  O   UNL     1       1.790   9.116  21.153  0.00  0.00    -0.271 OA
BRANCH  14  23
ATOM     22  C   UNL     1       1.404  10.261  18.171  0.00  0.00    +0.013 C 
ATOM     23  C   UNL     1       2.357  10.151  19.096  0.00  0.00    +0.060 C 
ENDBRANCH  14  23
ENDBRANCH   1  17
BRANCH   5  24
ATOM     24  C   UNL     1       9.133   5.957  19.539  0.00  0.00    +0.075 A 
ATOM     25  S   UNL     1      10.747   5.480  19.581  0.00  0.00    -0.084 S 
ATOM     26  C   UNL     1      11.099   5.899  17.989  0.00  0.00    +0.023 A 
ATOM     27  C   UNL     1       9.950   6.414  17.401  0.00  0.00    +0.017 A 
ATOM     28  C   UNL     1       8.849   6.444  18.267  0.00  0.00    +0.021 A 
BRANCH  26  29
ATOM     29  C   UNL     1      12.408   5.735  17.338  0.00  0.00    +0.026 A 
ATOM     30  C   UNL     1      13.337   4.737  17.567  0.00  0.00    +0.143 A 
ATOM     31  N   UNL     1      14.407   4.941  16.772  0.00  0.00    -0.182 NA
ATOM     32  N   UNL     1      14.180   6.031  16.056  0.00  0.00    -0.284 N 
ATOM     33  H   UNL     1      14.846   6.422  15.355  0.00  0.00    +0.188 HD
ATOM     34  C   UNL     1      12.976   6.541  16.373  0.00  0.00    +0.114 A 
ENDBRANCH  26  29
ENDBRANCH   5  24
TORSDOF 4
ENDMDL
MODEL 5
REMARK VINA RESULT:    -8.645      2.235      3.748
REMARK INTER + INTRA:         -11.218
REMARK INTER:                 -11.680
REMARK INTRA:                   0.461
REMARK UNBOUND:                -0.552
REMARK  Name = 
REMARK  4 active torsions:
REMARK  status: ('A' for Active; 'I' for Inactive)
REMARK    1  A    between atoms: C_2  and  C_3
REMARK    2  A    between atoms: C_9  and  N_11
REMARK    3  A    between atoms: C_21  and  C_23
REMARK    4  A    between atoms: C_26  and  C_28
REMARK                            x       y       z     vdW  Elec       q    Type
REMARK                         _______ _______ _______ _____ _____    ______ ____
ROOT
ATOM      1  N   UNL     1       5.542   3.787  23.395  0.00  0.00    -0.307 N 
ATOM      2  C   UNL     1       6.745   3.957  22.774  0.00  0.00    +0.204 A 
ATOM      3  N   UNL     1       6.893   4.387  21.417  0.00  0.00    -0.251 N 
ATOM      4  H   UNL     1       7.541   3.842  20.804  0.00  0.00    +0.158 HD
ATOM      5  C   UNL     1       6.402   5.653  20.956  0.00  0.00    +0.257 C 
ATOM      6  O   UNL     1       6.015   6.518  21.788  0.00  0.00    -0.269 OA
ATOM      7  N   UNL     1       7.814   3.624  23.539  0.00  0.00    -0.214 NA
ATOM      8  C   UNL     1       7.247   3.250  24.699  0.00  0.00    +0.091 A 
ATOM      9  C   UNL     1       7.896   2.793  25.843  0.00  0.00    +0.030 A 
ATOM     10  C   UNL     1       7.103   2.414  26.941  0.00  0.00    +0.002 A 
ATOM     11  C   UNL     1       5.695   2.491  26.864  0.00  0.00    +0.002 A 
ATOM     12  C   UNL     1       5.068   2.952  25.692  0.00  0.00    +0.028 A 
ATOM     13  C   UNL     1       5.885   3.339  24.623  0.00  0.00    +0.070 A 
ENDROOT
BRANCH   1  17
ATOM     14  C   UNL     1       2.102   6.721  21.425  0.00  0.00    +0.239 C 
ATOM     15  N   UNL     1       2.427   5.562  22.224  0.00  0.00    -0.296 N 
ATOM     16  C   UNL     1       3.773   5.430  22.803  0.00  0.00    +0.133 C 
ATOM     17  C   UNL     1       4.198   3.949  22.810  0.00  0.00    +0.108 C 
ATOM     18  C   UNL     1       3.161   3.015  23.491  0.00  0.00    +0.028 C 
ATOM     19  C   UNL     1       1.809   3.695  23.748  0.00  0.00    +0.021 C 
ATOM     20  C   UNL     1       1.384   4.582  22.571  0.00  0.00    +0.108 C 
ATOM     21  O   UNL     1       2.851   7.737  21.469  0.00  0.00    -0.271 OA
BRANCH  14  23
ATOM     22  C   UNL     1       0.994   6.617  19.225  0.00  0.00    +0.013 C 
ATOM     23  C   UNL     1       0.907   6.738  20.549  0.00  0.00    +0.060 C 
ENDBRANCH  14  23
ENDBRANCH   1  17
BRANCH   5  24
ATOM     24  C   UNL     1       6.348   5.959  19.517  0.00  0.00    +0.075 A 
ATOM     25  S   UNL     1       7.506   6.821  18.651  0.00  0.00    -0.084 S 
ATOM     26  C   UNL     1       6.746   6.688  17.154  0.00  0.00    +0.023 A 
ATOM     27  C   UNL     1       5.573   5.960  17.316  0.00  0.00    +0.017 A 
ATOM     28  C   UNL     1       5.352   5.549  18.637  0.00  0.00    +0.021 A 
BRANCH  26  29
ATOM     29  C   UNL     1       7.253   7.250  15.893  0.00  0.00    +0.026 A 
ATOM     30  C   UNL     1       8.570   7.499  15.557  0.00  0.00    +0.143 A 
ATOM     31  N   UNL     1       8.618   8.015  14.313  0.00  0.00    -0.182 NA
ATOM     32  N   UNL     1       7.377   8.098  13.859  0.00  0.00    -0.284 N 
ATOM     33  H   UNL     1       7.120   8.465  12.917  0.00  0.00    +0.188 HD
ATOM     34  C   UNL     1       6.521   7.643  14.791  0.00  0.00    +0.114 A 
ENDBRANCH  26  29
ENDBRANCH   5  24
TORSDOF 4
ENDMDL
MODEL 6
REMARK VINA RESULT:    -8.571      3.326      6.016
REMARK INTER + INTRA:         -11.127
REMARK INTER:                 -11.189
REMARK INTRA:                   0.062
REMARK UNBOUND:                -0.552
REMARK  Name = 
REMARK  4 active torsions:
REMARK  status: ('A' for Active; 'I' for Inactive)
REMARK    1  A    between atoms: C_2  and  C_3
REMARK    2  A    between atoms: C_9  and  N_11
REMARK    3  A    between atoms: C_21  and  C_23
REMARK    4  A    between atoms: C_26  and  C_28
REMARK                            x       y       z     vdW  Elec       q    Type
REMARK                         _______ _______ _______ _____ _____    ______ ____
ROOT
ATOM      1  N   UNL     1       5.244   8.328  19.252  0.00  0.00    -0.307 N 
ATOM      2  C   UNL     1       5.929   8.830  18.185  0.00  0.00    +0.204 A 
ATOM      3  N   UNL     1       7.287   8.498  17.875  0.00  0.00    -0.251 N 
ATOM      4  H   UNL     1       7.942   9.285  17.667  0.00  0.00    +0.158 HD
ATOM      5  C   UNL     1       7.702   7.154  17.592  0.00  0.00    +0.257 C 
ATOM      6  O   UNL     1       6.837   6.258  17.396  0.00  0.00    -0.269 OA
ATOM      7  N   UNL     1       5.231   9.736  17.455  0.00  0.00    -0.214 NA
ATOM      8  C   UNL     1       4.046   9.779  18.088  0.00  0.00    +0.091 A 
ATOM      9  C   UNL     1       2.946  10.569  17.761  0.00  0.00    +0.030 A 
ATOM     10  C   UNL     1       1.811  10.488  18.587  0.00  0.00    +0.002 A 
ATOM     11  C   UNL     1       1.807   9.637  19.713  0.00  0.00    +0.002 A 
ATOM     12  C   UNL     1       2.936   8.855  20.021  0.00  0.00    +0.028 A 
ATOM     13  C   UNL     1       4.044   8.943  19.170  0.00  0.00    +0.070 A 
ENDROOT
BRANCH   1  17
ATOM     14  C   UNL     1       4.349   4.905  22.687  0.00  0.00    +0.239 C 
ATOM     15  N   UNL     1       5.137   6.031  22.241  0.00  0.00    -0.296 N 
ATOM     16  C   UNL     1       4.605   6.926  21.203  0.00  0.00    +0.133 C 
ATOM     17  C   UNL     1       5.749   7.419  20.297  0.00  0.00    +0.108 C 
ATOM     18  C   UNL     1       6.928   8.052  21.085  0.00  0.00    +0.028 C 
ATOM     19  C   UNL     1       6.855   7.795  22.597  0.00  0.00    +0.021 C 
ATOM     20  C   UNL     1       6.407   6.362  22.910  0.00  0.00    +0.108 C 
ATOM     21  O   UNL     1       3.117   4.860  22.414  0.00  0.00    -0.271 OA
BRANCH  14  23
ATOM     22  C   UNL     1       4.432   3.336  24.588  0.00  0.00    +0.013 C 
ATOM     23  C   UNL     1       4.963   3.797  23.456  0.00  0.00    +0.060 C 
ENDBRANCH  14  23
ENDBRANCH   1  17
BRANCH   5  24
ATOM     24  C   UNL     1       9.131   6.809  17.522  0.00  0.00    +0.075 A 
ATOM     25  S   UNL     1       9.907   5.642  18.454  0.00  0.00    -0.084 S 
ATOM     26  C   UNL     1      11.428   5.840  17.759  0.00  0.00    +0.023 A 
ATOM     27  C   UNL     1      11.343   6.824  16.781  0.00  0.00    +0.017 A 
ATOM     28  C   UNL     1      10.058   7.364  16.646  0.00  0.00    +0.021 A 
BRANCH  26  29
ATOM     29  C   UNL     1      12.636   5.087  18.131  0.00  0.00    +0.026 A 
ATOM     30  C   UNL     1      13.551   4.501  17.277  0.00  0.00    +0.143 A 
ATOM     31  N   UNL     1      14.515   3.904  18.007  0.00  0.00    -0.182 NA
ATOM     32  N   UNL     1      14.233   4.096  19.286  0.00  0.00    -0.284 N 
ATOM     33  H   UNL     1      14.815   3.739  20.075  0.00  0.00    +0.188 HD
ATOM     34  C   UNL     1      13.099   4.810  19.400  0.00  0.00    +0.114 A 
ENDBRANCH  26  29
ENDBRANCH   5  24
TORSDOF 4
ENDMDL
MODEL 7
REMARK VINA RESULT:    -7.868      3.710      7.753
REMARK INTER + INTRA:         -10.259
REMARK INTER:                  -9.519
REMARK INTRA:                  -0.740
REMARK UNBOUND:                -0.552
REMARK  Name = 
REMARK  4 active torsions:
REMARK  status: ('A' for Active; 'I' for Inactive)
REMARK    1  A    between atoms: C_2  and  C_3
REMARK    2  A    between atoms: C_9  and  N_11
REMARK    3  A    between atoms: C_21  and  C_23
REMARK    4  A    between atoms: C_26  and  C_28
REMARK                            x       y       z     vdW  Elec       q    Type
REMARK                         _______ _______ _______ _____ _____    ______ ____
ROOT
ATOM      1  N   UNL     1       5.206   7.130  20.038  0.00  0.00    -0.307 N 
ATOM      2  C   UNL     1       4.954   6.705  21.309  0.00  0.00    +0.204 A 
ATOM      3  N   UNL     1       5.800   5.809  22.038  0.00  0.00    -0.251 N 
ATOM      4  H   UNL     1       5.348   4.997  22.516  0.00  0.00    +0.158 HD
ATOM      5  C   UNL     1       7.165   6.123  22.344  0.00  0.00    +0.257 C 
ATOM      6  O   UNL     1       7.596   7.294  22.165  0.00  0.00    -0.269 OA
ATOM      7  N   UNL     1       3.783   7.158  21.822  0.00  0.00    -0.214 NA
ATOM      8  C   UNL     1       3.297   7.920  20.828  0.00  0.00    +0.091 A 
ATOM      9  C   UNL     1       2.094   8.623  20.818  0.00  0.00    +0.030 A 
ATOM     10  C   UNL     1       1.756   9.331  19.651  0.00  0.00    +0.002 A 
ATOM     11  C   UNL     1       2.615   9.310  18.530  0.00  0.00    +0.002 A 
ATOM     12  C   UNL     1       3.822   8.586  18.569  0.00  0.00    +0.028 A 
ATOM     13  C   UNL     1       4.139   7.907  19.751  0.00  0.00    +0.070 A 
ENDROOT
BRANCH   1  17
ATOM     14  C   UNL     1       9.656   8.096  18.144  0.00  0.00    +0.239 C 
ATOM     15  N   UNL     1       8.345   7.510  17.982  0.00  0.00    -0.296 N 
ATOM     16  C   UNL     1       7.245   7.931  18.864  0.00  0.00    +0.133 C 
ATOM     17  C   UNL     1       6.324   6.733  19.163  0.00  0.00    +0.108 C 
ATOM     18  C   UNL     1       5.822   6.009  17.884  0.00  0.00    +0.028 C 
ATOM     19  C   UNL     1       6.567   6.437  16.612  0.00  0.00    +0.021 C 
ATOM     20  C   UNL     1       8.072   6.596  16.860  0.00  0.00    +0.108 C 
ATOM     21  O   UNL     1       9.786   9.154  18.821  0.00  0.00    -0.271 OA
BRANCH  14  23
ATOM     22  C   UNL     1      11.491   6.448  18.103  0.00  0.00    +0.013 C 
ATOM     23  C   UNL     1      10.854   7.472  17.535  0.00  0.00    +0.060 C 
ENDBRANCH  14  23
ENDBRANCH   1  17
BRANCH   5  24
ATOM     24  C   UNL     1       8.073   5.091  22.872  0.00  0.00    +0.075 A 
ATOM     25  S   UNL     1       7.606   3.704  23.705  0.00  0.00    -0.084 S 
ATOM     26  C   UNL     1       9.158   3.082  23.900  0.00  0.00    +0.023 A 
ATOM     27  C   UNL     1      10.064   3.955  23.308  0.00  0.00    +0.017 A 
ATOM     28  C   UNL     1       9.457   5.077  22.730  0.00  0.00    +0.021 A 
BRANCH  26  29
ATOM     29  C   UNL     1       9.487   1.820  24.581  0.00  0.00    +0.026 A 
ATOM     30  C   UNL     1       9.181   1.467  25.882  0.00  0.00    +0.143 A 
ATOM     31  N   UNL     1       9.657   0.230  26.126  0.00  0.00    -0.182 NA
ATOM     32  N   UNL     1      10.251  -0.202  25.024  0.00  0.00    -0.284 N 
ATOM     33  H   UNL     1      10.710  -1.135  24.932  0.00  0.00    +0.188 HD
ATOM     34  C   UNL     1      10.168   0.737  24.065  0.00  0.00    +0.114 A 
ENDBRANCH  26  29
ENDBRANCH   5  24
TORSDOF 4
ENDMDL
MODEL 8
REMARK VINA RESULT:    -7.746      4.499      9.058
REMARK INTER + INTRA:         -10.109
REMARK INTER:                  -9.739
REMARK INTRA:                  -0.370
REMARK UNBOUND:                -0.552
REMARK  Name = 
REMARK  4 active torsions:
REMARK  status: ('A' for Active; 'I' for Inactive)
REMARK    1  A    between atoms: C_2  and  C_3
REMARK    2  A    between atoms: C_9  and  N_11
REMARK    3  A    between atoms: C_21  and  C_23
REMARK    4  A    between atoms: C_26  and  C_28
REMARK                            x       y       z     vdW  Elec       q    Type
REMARK                         _______ _______ _______ _____ _____    ______ ____
ROOT
ATOM      1  N   UNL     1       7.646   6.031  20.509  0.00  0.00    -0.307 N 
ATOM      2  C   UNL     1       8.936   5.732  20.835  0.00  0.00    +0.204 A 
ATOM      3  N   UNL     1       9.376   5.414  22.160  0.00  0.00    -0.251 N 
ATOM      4  H   UNL     1      10.226   5.904  22.518  0.00  0.00    +0.158 HD
ATOM      5  C   UNL     1       8.862   4.290  22.888  0.00  0.00    +0.257 C 
ATOM      6  O   UNL     1       8.164   3.423  22.296  0.00  0.00    -0.269 OA
ATOM      7  N   UNL     1       9.804   5.818  19.795  0.00  0.00    -0.214 NA
ATOM      8  C   UNL     1       9.007   6.166  18.770  0.00  0.00    +0.091 A 
ATOM      9  C   UNL     1       9.389   6.405  17.452  0.00  0.00    +0.030 A 
ATOM     10  C   UNL     1       8.394   6.800  16.541  0.00  0.00    +0.002 A 
ATOM     11  C   UNL     1       7.057   6.955  16.968  0.00  0.00    +0.002 A 
ATOM     12  C   UNL     1       6.703   6.711  18.308  0.00  0.00    +0.028 A 
ATOM     13  C   UNL     1       7.712   6.302  19.187  0.00  0.00    +0.070 A 
ENDROOT
BRANCH   1  17
ATOM     14  C   UNL     1       4.027   3.841  23.044  0.00  0.00    +0.239 C 
ATOM     15  N   UNL     1       4.497   4.990  22.305  0.00  0.00    -0.296 N 
ATOM     16  C   UNL     1       5.646   4.852  21.397  0.00  0.00    +0.133 C 
ATOM     17  C   UNL     1       6.491   6.139  21.419  0.00  0.00    +0.108 C 
ATOM     18  C   UNL     1       5.663   7.423  21.143  0.00  0.00    +0.028 C 
ATOM     19  C   UNL     1       4.146   7.191  21.200  0.00  0.00    +0.021 C 
ATOM     20  C   UNL     1       3.755   6.262  22.354  0.00  0.00    +0.108 C 
ATOM     21  O   UNL     1       4.396   2.684  22.698  0.00  0.00    -0.271 OA
BRANCH  14  23
ATOM     22  C   UNL     1       1.804   3.816  24.113  0.00  0.00    +0.013 C 
ATOM     23  C   UNL     1       3.122   3.996  24.207  0.00  0.00    +0.060 C 
ENDBRANCH  14  23
ENDBRANCH   1  17
BRANCH   5  24
ATOM     24  C   UNL     1       9.146   4.133  24.324  0.00  0.00    +0.075 A 
ATOM     25  S   UNL     1       8.158   3.352  25.442  0.00  0.00    -0.084 S 
ATOM     26  C   UNL     1       9.177   3.572  26.765  0.00  0.00    +0.023 A 
ATOM     27  C   UNL     1      10.309   4.259  26.343  0.00  0.00    +0.017 A 
ATOM     28  C   UNL     1      10.293   4.571  24.977  0.00  0.00    +0.021 A 
BRANCH  26  29
ATOM     29  C   UNL     1       8.904   3.105  28.133  0.00  0.00    +0.026 A 
ATOM     30  C   UNL     1       9.226   1.876  28.676  0.00  0.00    +0.143 A 
ATOM     31  N   UNL     1       8.806   1.837  29.956  0.00  0.00    -0.182 NA
ATOM     32  N   UNL     1       8.231   2.998  30.232  0.00  0.00    -0.284 N 
ATOM     33  H   UNL     1       7.815   3.242  31.156  0.00  0.00    +0.188 HD
ATOM     34  C   UNL     1       8.272   3.793  29.148  0.00  0.00    +0.114 A 
ENDBRANCH  26  29
ENDBRANCH   5  24
TORSDOF 4
ENDMDL
MODEL 9
REMARK VINA RESULT:    -7.736      5.920      9.329
REMARK INTER + INTRA:         -10.096
REMARK INTER:                  -9.433
REMARK INTRA:                  -0.664
REMARK UNBOUND:                -0.552
REMARK  Name = 
REMARK  4 active torsions:
REMARK  status: ('A' for Active; 'I' for Inactive)
REMARK    1  A    between atoms: C_2  and  C_3
REMARK    2  A    between atoms: C_9  and  N_11
REMARK    3  A    between atoms: C_21  and  C_23
REMARK    4  A    between atoms: C_26  and  C_28
REMARK                            x       y       z     vdW  Elec       q    Type
REMARK                         _______ _______ _______ _____ _____    ______ ____
ROOT
ATOM      1  N   UNL     1       6.841   4.898  22.453  0.00  0.00    -0.307 N 
ATOM      2  C   UNL     1       6.569   3.948  23.393  0.00  0.00    +0.204 A 
ATOM      3  N   UNL     1       7.537   3.026  23.905  0.00  0.00    -0.251 N 
ATOM      4  H   UNL     1       7.272   2.016  23.942  0.00  0.00    +0.158 HD
ATOM      5  C   UNL     1       8.720   3.459  24.592  0.00  0.00    +0.257 C 
ATOM      6  O   UNL     1       8.832   4.662  24.953  0.00  0.00    -0.269 OA
ATOM      7  N   UNL     1       5.267   3.901  23.772  0.00  0.00    -0.214 NA
ATOM      8  C   UNL     1       4.710   4.886  23.047  0.00  0.00    +0.091 A 
ATOM      9  C   UNL     1       3.371   5.269  23.037  0.00  0.00    +0.030 A 
ATOM     10  C   UNL     1       2.991   6.307  22.168  0.00  0.00    +0.002 A 
ATOM     11  C   UNL     1       3.947   6.923  21.332  0.00  0.00    +0.002 A 
ATOM     12  C   UNL     1       5.292   6.511  21.361  0.00  0.00    +0.028 A 
ATOM     13  C   UNL     1       5.643   5.488  22.249  0.00  0.00    +0.070 A 
ENDROOT
BRANCH   1  17
ATOM     14  C   UNL     1      11.172   7.246  22.216  0.00  0.00    +0.239 C 
ATOM     15  N   UNL     1      10.052   6.647  21.527  0.00  0.00    -0.296 N 
ATOM     16  C   UNL     1       8.786   6.433  22.244  0.00  0.00    +0.133 C 
ATOM     17  C   UNL     1       8.120   5.133  21.756  0.00  0.00    +0.108 C 
ATOM     18  C   UNL     1       7.951   5.069  20.214  0.00  0.00    +0.028 C 
ATOM     19  C   UNL     1       8.737   6.159  19.472  0.00  0.00    +0.021 C 
ATOM     20  C   UNL     1      10.128   6.373  20.082  0.00  0.00    +0.108 C 
ATOM     21  O   UNL     1      10.981   7.844  23.312  0.00  0.00    -0.271 OA
BRANCH  14  23
ATOM     22  C   UNL     1      13.371   6.161  21.953  0.00  0.00    +0.013 C 
ATOM     23  C   UNL     1      12.544   7.165  21.663  0.00  0.00    +0.060 C 
ENDBRANCH  14  23
ENDBRANCH   1  17
BRANCH   5  24
ATOM     24  C   UNL     1       9.807   2.511  24.885  0.00  0.00    +0.075 A 
ATOM     25  S   UNL     1       9.681   0.833  24.862  0.00  0.00    -0.084 S 
ATOM     26  C   UNL     1      11.291   0.526  25.247  0.00  0.00    +0.023 A 
ATOM     27  C   UNL     1      11.950   1.742  25.394  0.00  0.00    +0.017 A 
ATOM     28  C   UNL     1      11.121   2.852  25.189  0.00  0.00    +0.021 A 
BRANCH  26  29
ATOM     29  C   UNL     1      11.889  -0.809  25.395  0.00  0.00    +0.026 A 
ATOM     30  C   UNL     1      12.971  -1.159  26.181  0.00  0.00    +0.143 A 
ATOM     31  N   UNL     1      13.210  -2.478  26.040  0.00  0.00    -0.182 NA
ATOM     32  N   UNL     1      12.316  -2.965  25.193  0.00  0.00    -0.284 N 
ATOM     33  H   UNL     1      12.269  -3.965  24.900  0.00  0.00    +0.188 HD
ATOM     34  C   UNL     1      11.498  -1.981  24.779  0.00  0.00    +0.114 A 
ENDBRANCH  26  29
ENDBRANCH   5  24
TORSDOF 4
ENDMDL
