MODEL 1
REMARK VINA RESULT:    -8.098      0.000      0.000
REMARK INTER + INTRA:         -12.394
REMARK INTER:                 -11.175
REMARK INTRA:                  -1.219
REMARK UNBOUND:                -1.219
REMARK  Name = 
REMARK  11 active torsions:
REMARK  status: ('A' for Active; 'I' for Inactive)
REMARK    1  A    between atoms: C_1  and  C_2
REMARK    2  A    between atoms: C_6  and  C_36
REMARK    3  A    between atoms: N_7  and  C_8
REMARK    4  A    between atoms: C_8  and  C_9
REMARK    5  A    between atoms: N_15  and  C_31
REMARK    6  A    between atoms: C_19  and  C_21
REMARK    7  A    between atoms: C_24  and  C_26
REMARK    8  A    between atoms: C_31  and  C_32
REMARK    9  A    between atoms: C_32  and  C_33
REMARK   10  A    between atoms: C_32  and  C_34
REMARK   11  A    between atoms: C_32  and  O_35
REMARK                            x       y       z     vdW  Elec       q    Type
REMARK                         _______ _______ _______ _____ _____    ______ ____
ROOT
ATOM      1  C   UNL     1       7.100   7.689  17.160  0.00  0.00    -0.031 A 
ATOM      2  C   UNL     1       8.068   8.100  18.113  0.00  0.00    +0.007 A 
ATOM      3  C   UNL     1       9.337   8.545  17.703  0.00  0.00    +0.028 A 
ATOM      4  C   UNL     1       9.606   8.575  16.333  0.00  0.00    +0.070 A 
ATOM      5  N   UNL     1      10.725   8.962  15.693  0.00  0.00    -0.309 N 
ATOM      6  C   UNL     1      10.406   8.812  14.376  0.00  0.00    +0.203 A 
ATOM      7  N   UNL     1      11.300   9.097  13.295  0.00  0.00    -0.251 N 
ATOM      8  H   UNL     1      11.332   8.414  12.506  0.00  0.00    +0.158 HD
ATOM      9  C   UNL     1      11.872  10.397  13.102  0.00  0.00    +0.257 C 
ATOM     10  O   UNL     1      11.437  11.381  13.761  0.00  0.00    -0.269 OA
ATOM     11  N   UNL     1       9.156   8.328  14.164  0.00  0.00    -0.214 NA
ATOM     12  C   UNL     1       8.672   8.197  15.412  0.00  0.00    +0.091 A 
ATOM     13  C   UNL     1       7.408   7.750  15.782  0.00  0.00    +0.034 A 
ENDROOT
BRANCH   9  14
ATOM     14  C   UNL     1      12.946  10.610  12.119  0.00  0.00    +0.075 A 
ATOM     15  S   UNL     1      13.256   9.609  10.800  0.00  0.00    -0.084 S 
ATOM     16  C   UNL     1      14.559  10.494  10.205  0.00  0.00    +0.023 A 
ATOM     17  C   UNL     1      14.765  11.592  11.034  0.00  0.00    +0.017 A 
ATOM     18  C   UNL     1      13.862  11.659  12.102  0.00  0.00    +0.021 A 
BRANCH  16  19
ATOM     19  C   UNL     1      15.339  10.153   9.005  0.00  0.00    +0.026 A 
ATOM     20  C   UNL     1      16.343  10.895   8.411  0.00  0.00    +0.143 A 
ATOM     21  N   UNL     1      16.797  10.235   7.328  0.00  0.00    -0.182 NA
ATOM     22  N   UNL     1      16.113   9.106   7.226  0.00  0.00    -0.284 N 
ATOM     23  H   UNL     1      16.258   8.398   6.474  0.00  0.00    +0.188 HD
ATOM     24  C   UNL     1      15.218   9.023   8.227  0.00  0.00    +0.114 A 
ENDBRANCH  16  19
ENDBRANCH   9  14
BRANCH   1  25
ATOM     25  C   UNL     1       5.732   7.250  17.613  0.00  0.00    +0.120 C 
BRANCH  25  28
ATOM     26  C   UNL     1       4.633  10.011  18.386  0.00  0.00    +0.026 C 
ATOM     27  C   UNL     1       4.355   8.684  19.110  0.00  0.00    +0.080 C 
ATOM     28  N   UNL     1       5.472   7.711  19.007  0.00  0.00    -0.288 NA
ATOM     29  C   UNL     1       5.182   6.602  19.958  0.00  0.00    +0.080 C 
ATOM     30  C   UNL     1       6.205   5.455  19.897  0.00  0.00    +0.026 C 
ATOM     31  C   UNL     1       3.710   6.105  19.833  0.00  0.00    +0.178 C 
ATOM     32  O   UNL     1       3.077   6.610  18.671  0.00  0.00    -0.377 OA
ATOM     33  C   UNL     1       3.010   8.027  18.697  0.00  0.00    +0.178 C 
ENDBRANCH  25  28
ENDBRANCH   1  25
BRANCH   5  34
ATOM     34  C   UNL     1      12.025   9.310  16.289  0.00  0.00    +0.159 C 
BRANCH  34  35
ATOM     35  C   UNL     1      13.030   8.126  16.250  0.00  0.00    +0.078 C 
ATOM     36  C   UNL     1      12.307   6.829  16.670  0.00  0.00    +0.043 C 
ATOM     37  C   UNL     1      14.200   8.368  17.217  0.00  0.00    +0.043 C 
BRANCH  35  38
ATOM     38  O   UNL     1      13.559   7.975  14.954  0.00  0.00    -0.387 OA
ATOM     39  H   UNL     1      12.817   7.710  14.349  0.00  0.00    +0.210 HD
ENDBRANCH  35  38
ENDBRANCH  34  35
ENDBRANCH   5  34
TORSDOF 7
ENDMDL
MODEL 2
REMARK VINA RESULT:    -8.000      5.109     12.117
REMARK INTER + INTRA:         -12.258
REMARK INTER:                 -11.091
REMARK INTRA:                  -1.167
REMARK UNBOUND:                -1.219
REMARK  Name = 
REMARK  11 active torsions:
REMARK  status: ('A' for Active; 'I' for Inactive)
REMARK    1  A    between atoms: C_1  and  C_2
REMARK    2  A    between atoms: C_6  and  C_36
REMARK    3  A    between atoms: N_7  and  C_8
REMARK    4  A    between atoms: C_8  and  C_9
REMARK    5  A    between atoms: N_15  and  C_31
REMARK    6  A    between atoms: C_19  and  C_21
REMARK    7  A    between atoms: C_24  and  C_26
REMARK    8  A    between atoms: C_31  and  C_32
REMARK    9  A    between atoms: C_32  and  C_33
REMARK   10  A    between atoms: C_32  and  C_34
REMARK   11  A    between atoms: C_32  and  O_35
REMARK                            x       y       z     vdW  Elec       q    Type
REMARK                         _______ _______ _______ _____ _____    ______ ____
ROOT
ATOM      1  C   UNL     1      13.478   6.645  16.209  0.00  0.00    -0.031 A 
ATOM      2  C   UNL     1      12.836   7.867  15.881  0.00  0.00    +0.007 A 
ATOM      3  C   UNL     1      11.523   8.127  16.312  0.00  0.00    +0.028 A 
ATOM      4  C   UNL     1      10.881   7.150  17.076  0.00  0.00    +0.070 A 
ATOM      5  N   UNL     1       9.646   7.161  17.609  0.00  0.00    -0.309 N 
ATOM      6  C   UNL     1       9.575   5.972  18.272  0.00  0.00    +0.203 A 
ATOM      7  N   UNL     1       8.427   5.524  19.001  0.00  0.00    -0.251 N 
ATOM      8  H   UNL     1       8.145   4.525  18.885  0.00  0.00    +0.158 HD
ATOM      9  C   UNL     1       7.881   6.271  20.095  0.00  0.00    +0.257 C 
ATOM     10  O   UNL     1       8.526   7.240  20.581  0.00  0.00    -0.269 OA
ATOM     11  N   UNL     1      10.693   5.211  18.158  0.00  0.00    -0.214 NA
ATOM     12  C   UNL     1      11.502   5.980  17.409  0.00  0.00    +0.091 A 
ATOM     13  C   UNL     1      12.798   5.688  16.998  0.00  0.00    +0.034 A 
ENDROOT
BRANCH   9  14
ATOM     14  C   UNL     1       6.584   5.903  20.686  0.00  0.00    +0.075 A 
ATOM     15  S   UNL     1       6.388   4.955  22.065  0.00  0.00    -0.084 S 
ATOM     16  C   UNL     1       4.706   5.006  22.082  0.00  0.00    +0.023 A 
ATOM     17  C   UNL     1       4.275   5.774  21.004  0.00  0.00    +0.017 A 
ATOM     18  C   UNL     1       5.324   6.278  20.226  0.00  0.00    +0.021 A 
BRANCH  16  19
ATOM     19  C   UNL     1       3.847   4.347  23.076  0.00  0.00    +0.026 A 
ATOM     20  C   UNL     1       2.465   4.323  23.116  0.00  0.00    +0.143 A 
ATOM     21  N   UNL     1       2.067   3.617  24.193  0.00  0.00    -0.182 NA
ATOM     22  N   UNL     1       3.152   3.199  24.826  0.00  0.00    -0.284 N 
ATOM     23  H   UNL     1       3.139   2.626  25.698  0.00  0.00    +0.188 HD
ATOM     24  C   UNL     1       4.251   3.623  24.177  0.00  0.00    +0.114 A 
ENDBRANCH  16  19
ENDBRANCH   9  14
BRANCH   1  25
ATOM     25  C   UNL     1      14.898   6.395  15.772  0.00  0.00    +0.120 C 
BRANCH  25  28
ATOM     26  C   UNL     1      14.285   3.914  14.069  0.00  0.00    +0.026 C 
ATOM     27  C   UNL     1      15.549   4.152  14.912  0.00  0.00    +0.080 C 
ATOM     28  N   UNL     1      15.309   5.002  16.107  0.00  0.00    -0.288 NA
ATOM     29  C   UNL     1      16.531   4.927  16.954  0.00  0.00    +0.080 C 
ATOM     30  C   UNL     1      16.478   5.841  18.192  0.00  0.00    +0.026 C 
ATOM     31  C   UNL     1      17.829   5.123  16.115  0.00  0.00    +0.178 C 
ATOM     32  O   UNL     1      17.551   5.605  14.812  0.00  0.00    -0.377 OA
ATOM     33  C   UNL     1      16.749   4.686  14.086  0.00  0.00    +0.178 C 
ENDBRANCH  25  28
ENDBRANCH   1  25
BRANCH   5  34
ATOM     34  C   UNL     1       8.583   8.154  17.389  0.00  0.00    +0.159 C 
BRANCH  34  35
ATOM     35  C   UNL     1       7.579   7.712  16.287  0.00  0.00    +0.078 C 
ATOM     36  C   UNL     1       8.227   7.905  14.901  0.00  0.00    +0.043 C 
ATOM     37  C   UNL     1       6.294   8.553  16.348  0.00  0.00    +0.043 C 
BRANCH  35  38
ATOM     38  O   UNL     1       7.225   6.361  16.461  0.00  0.00    -0.387 OA
ATOM     39  H   UNL     1       6.292   6.245  16.141  0.00  0.00    +0.210 HD
ENDBRANCH  35  38
ENDBRANCH  34  35
ENDBRANCH   5  34
TORSDOF 7
ENDMDL
MODEL 3
REMARK VINA RESULT:    -7.980      7.757     12.408
REMARK INTER + INTRA:         -12.232
REMARK INTER:                 -11.220
REMARK INTRA:                  -1.011
REMARK UNBOUND:                -1.219
REMARK  Name = 
REMARK  11 active torsions:
REMARK  status: ('A' for Active; 'I' for Inactive)
REMARK    1  A    between atoms: C_1  and  C_2
REMARK    2  A    between atoms: C_6  and  C_36
REMARK    3  A    between atoms: N_7  and  C_8
REMARK    4  A    between atoms: C_8  and  C_9
REMARK    5  A    between atoms: N_15  and  C_31
REMARK    6  A    between atoms: C_19  and  C_21
REMARK    7  A    between atoms: C_24  and  C_26
REMARK    8  A    between atoms: C_31  and  C_32
REMARK    9  A    between atoms: C_32  and  C_33
REMARK   10  A    between atoms: C_32  and  C_34
REMARK   11  A    between atoms: C_32  and  O_35
REMARK                            x       y       z     vdW  Elec       q    Type
REMARK                         _______ _______ _______ _____ _____    ______ ____
ROOT
ATOM      1  C   UNL     1       3.006  11.205  16.316  0.00  0.00    -0.031 A 
ATOM      2  C   UNL     1       4.403  10.963  16.257  0.00  0.00    +0.007 A 
ATOM      3  C   UNL     1       5.028  10.128  17.200  0.00  0.00    +0.028 A 
ATOM      4  C   UNL     1       4.228   9.542  18.184  0.00  0.00    +0.070 A 
ATOM      5  N   UNL     1       4.578   8.709  19.181  0.00  0.00    -0.309 N 
ATOM      6  C   UNL     1       3.394   8.437  19.799  0.00  0.00    +0.203 A 
ATOM      7  N   UNL     1       3.259   7.586  20.942  0.00  0.00    -0.251 N 
ATOM      8  H   UNL     1       2.630   7.909  21.710  0.00  0.00    +0.158 HD
ATOM      9  C   UNL     1       3.668   6.212  20.921  0.00  0.00    +0.257 C 
ATOM     10  O   UNL     1       3.964   5.659  19.826  0.00  0.00    -0.269 OA
ATOM     11  N   UNL     1       2.328   9.077  19.253  0.00  0.00    -0.214 NA
ATOM     12  C   UNL     1       2.881   9.758  18.233  0.00  0.00    +0.091 A 
ATOM     13  C   UNL     1       2.230  10.580  17.319  0.00  0.00    +0.034 A 
ENDROOT
BRANCH   9  14
ATOM     14  C   UNL     1       3.719   5.421  22.161  0.00  0.00    +0.075 A 
ATOM     15  S   UNL     1       5.103   4.689  22.780  0.00  0.00    -0.084 S 
ATOM     16  C   UNL     1       4.364   4.027  24.140  0.00  0.00    +0.023 A 
ATOM     17  C   UNL     1       3.018   4.378  24.128  0.00  0.00    +0.017 A 
ATOM     18  C   UNL     1       2.657   5.159  23.023  0.00  0.00    +0.021 A 
BRANCH  16  19
ATOM     19  C   UNL     1       5.041   3.218  25.165  0.00  0.00    +0.026 A 
ATOM     20  C   UNL     1       6.370   2.839  25.201  0.00  0.00    +0.143 A 
ATOM     21  N   UNL     1       6.587   2.096  26.304  0.00  0.00    -0.182 NA
ATOM     22  N   UNL     1       5.440   1.999  26.958  0.00  0.00    -0.284 N 
ATOM     23  H   UNL     1       5.318   1.477  27.853  0.00  0.00    +0.188 HD
ATOM     24  C   UNL     1       4.479   2.667  26.296  0.00  0.00    +0.114 A 
ENDBRANCH  16  19
ENDBRANCH   9  14
BRANCH   1  25
ATOM     25  C   UNL     1       2.344  12.073  15.277  0.00  0.00    +0.120 C 
BRANCH  25  28
ATOM     26  C   UNL     1       4.667  13.700  14.099  0.00  0.00    +0.026 C 
ATOM     27  C   UNL     1       3.258  14.224  14.424  0.00  0.00    +0.080 C 
ATOM     28  N   UNL     1       2.611  13.513  15.555  0.00  0.00    -0.288 NA
ATOM     29  C   UNL     1       1.392  14.286  15.923  0.00  0.00    +0.080 C 
ATOM     30  C   UNL     1       0.549  13.618  17.024  0.00  0.00    +0.026 C 
ATOM     31  C   UNL     1       0.551  14.670  14.669  0.00  0.00    +0.178 C 
ATOM     32  O   UNL     1       0.971  13.966  13.513  0.00  0.00    -0.377 OA
ATOM     33  C   UNL     1       2.319  14.270  13.189  0.00  0.00    +0.178 C 
ENDBRANCH  25  28
ENDBRANCH   1  25
BRANCH   5  34
ATOM     34  C   UNL     1       5.937   8.320  19.590  0.00  0.00    +0.159 C 
BRANCH  34  35
ATOM     35  C   UNL     1       6.566   7.272  18.630  0.00  0.00    +0.078 C 
ATOM     36  C   UNL     1       7.253   6.168  19.461  0.00  0.00    +0.043 C 
ATOM     37  C   UNL     1       7.617   7.925  17.719  0.00  0.00    +0.043 C 
BRANCH  35  38
ATOM     38  O   UNL     1       5.574   6.700  17.811  0.00  0.00    -0.387 OA
ATOM     39  H   UNL     1       5.169   7.426  17.268  0.00  0.00    +0.210 HD
ENDBRANCH  35  38
ENDBRANCH  34  35
ENDBRANCH   5  34
TORSDOF 7
ENDMDL
MODEL 4
REMARK VINA RESULT:    -7.875      2.466      3.646
REMARK INTER + INTRA:         -12.086
REMARK INTER:                 -11.004
REMARK INTRA:                  -1.082
REMARK UNBOUND:                -1.219
REMARK  Name = 
REMARK  11 active torsions:
REMARK  status: ('A' for Active; 'I' for Inactive)
REMARK    1  A    between atoms: C_1  and  C_2
REMARK    2  A    between atoms: C_6  and  C_36
REMARK    3  A    between atoms: N_7  and  C_8
REMARK    4  A    between atoms: C_8  and  C_9
REMARK    5  A    between atoms: N_15  and  C_31
REMARK    6  A    between atoms: C_19  and  C_21
REMARK    7  A    between atoms: C_24  and  C_26
REMARK    8  A    between atoms: C_31  and  C_32
REMARK    9  A    between atoms: C_32  and  C_33
REMARK   10  A    between atoms: C_32  and  C_34
REMARK   11  A    between atoms: C_32  and  O_35
REMARK                            x       y       z     vdW  Elec       q    Type
REMARK                         _______ _______ _______ _____ _____    ______ ____
ROOT
ATOM      1  C   UNL     1       4.942   6.095  19.321  0.00  0.00    -0.031 A 
ATOM      2  C   UNL     1       5.917   6.214  20.345  0.00  0.00    +0.007 A 
ATOM      3  C   UNL     1       7.255   6.513  20.032  0.00  0.00    +0.028 A 
ATOM      4  C   UNL     1       7.585   6.697  18.688  0.00  0.00    +0.070 A 
ATOM      5  N   UNL     1       8.776   6.996  18.136  0.00  0.00    -0.309 N 
ATOM      6  C   UNL     1       8.496   7.086  16.805  0.00  0.00    +0.203 A 
ATOM      7  N   UNL     1       9.468   7.383  15.797  0.00  0.00    -0.251 N 
ATOM      8  H   UNL     1       9.433   6.822  14.916  0.00  0.00    +0.158 HD
ATOM      9  C   UNL     1      10.234   8.594  15.811  0.00  0.00    +0.257 C 
ATOM     10  O   UNL     1       9.921   9.529  16.598  0.00  0.00    -0.269 OA
ATOM     11  N   UNL     1       7.198   6.834  16.497  0.00  0.00    -0.214 NA
ATOM     12  C   UNL     1       6.646   6.601  17.701  0.00  0.00    +0.091 A 
ATOM     13  C   UNL     1       5.315   6.304  17.973  0.00  0.00    +0.034 A 
ENDROOT
BRANCH   9  14
ATOM     14  C   UNL     1      11.369   8.779  14.893  0.00  0.00    +0.075 A 
ATOM     15  S   UNL     1      11.249   9.360  13.317  0.00  0.00    -0.084 S 
ATOM     16  C   UNL     1      12.894   9.282  12.969  0.00  0.00    +0.023 A 
ATOM     17  C   UNL     1      13.562   8.801  14.091  0.00  0.00    +0.017 A 
ATOM     18  C   UNL     1      12.711   8.523  15.168  0.00  0.00    +0.021 A 
BRANCH  16  19
ATOM     19  C   UNL     1      13.510   9.664  11.690  0.00  0.00    +0.026 A 
ATOM     20  C   UNL     1      13.711   8.868  10.577  0.00  0.00    +0.143 A 
ATOM     21  N   UNL     1      14.314   9.597   9.617  0.00  0.00    -0.182 NA
ATOM     22  N   UNL     1      14.494  10.820  10.090  0.00  0.00    -0.284 N 
ATOM     23  H   UNL     1      14.941  11.596   9.555  0.00  0.00    +0.188 HD
ATOM     24  C   UNL     1      14.019  10.898  11.346  0.00  0.00    +0.114 A 
ENDBRANCH  16  19
ENDBRANCH   9  14
BRANCH   1  25
ATOM     25  C   UNL     1       3.506   5.810  19.674  0.00  0.00    +0.120 C 
BRANCH  25  28
ATOM     26  C   UNL     1       2.434   8.431  18.485  0.00  0.00    +0.026 C 
ATOM     27  C   UNL     1       1.891   7.704  19.726  0.00  0.00    +0.080 C 
ATOM     28  N   UNL     1       2.929   6.938  20.462  0.00  0.00    -0.288 NA
ATOM     29  C   UNL     1       2.331   6.516  21.758  0.00  0.00    +0.080 C 
ATOM     30  C   UNL     1       3.257   5.620  22.601  0.00  0.00    +0.026 C 
ATOM     31  C   UNL     1       0.910   5.906  21.568  0.00  0.00    +0.178 C 
ATOM     32  O   UNL     1       0.631   5.629  20.207  0.00  0.00    -0.377 OA
ATOM     33  C   UNL     1       0.656   6.813  19.427  0.00  0.00    +0.178 C 
ENDBRANCH  25  28
ENDBRANCH   1  25
BRANCH   5  34
ATOM     34  C   UNL     1      10.085   7.053  18.805  0.00  0.00    +0.159 C 
BRANCH  34  35
ATOM     35  C   UNL     1      10.842   5.697  18.741  0.00  0.00    +0.078 C 
ATOM     36  C   UNL     1      11.399   5.357  20.138  0.00  0.00    +0.043 C 
ATOM     37  C   UNL     1      12.015   5.772  17.751  0.00  0.00    +0.043 C 
BRANCH  35  38
ATOM     38  O   UNL     1       9.976   4.672  18.314  0.00  0.00    -0.387 OA
ATOM     39  H   UNL     1      10.419   3.802  18.493  0.00  0.00    +0.210 HD
ENDBRANCH  35  38
ENDBRANCH  34  35
ENDBRANCH   5  34
TORSDOF 7
ENDMDL
MODEL 5
REMARK VINA RESULT:    -7.662      2.671      4.086
REMARK INTER + INTRA:         -11.792
REMARK INTER:                 -10.632
REMARK INTRA:                  -1.160
REMARK UNBOUND:                -1.219
REMARK  Name = 
REMARK  11 active torsions:
REMARK  status: ('A' for Active; 'I' for Inactive)
REMARK    1  A    between atoms: C_1  and  C_2
REMARK    2  A    between atoms: C_6  and  C_36
REMARK    3  A    between atoms: N_7  and  C_8
REMARK    4  A    between atoms: C_8  and  C_9
REMARK    5  A    between atoms: N_15  and  C_31
REMARK    6  A    between atoms: C_19  and  C_21
REMARK    7  A    between atoms: C_24  and  C_26
REMARK    8  A    between atoms: C_31  and  C_32
REMARK    9  A    between atoms: C_32  and  C_33
REMARK   10  A    between atoms: C_32  and  C_34
REMARK   11  A    between atoms: C_32  and  O_35
REMARK                            x       y       z     vdW  Elec       q    Type
REMARK                         _______ _______ _______ _____ _____    ______ ____
ROOT
ATOM      1  C   UNL     1       6.677   6.919  21.330  0.00  0.00    -0.031 A 
ATOM      2  C   UNL     1       7.977   6.624  21.816  0.00  0.00    +0.007 A 
ATOM      3  C   UNL     1       9.115   6.895  21.035  0.00  0.00    +0.028 A 
ATOM      4  C   UNL     1       8.921   7.469  19.777  0.00  0.00    +0.070 A 
ATOM      5  N   UNL     1       9.833   7.827  18.854  0.00  0.00    -0.309 N 
ATOM      6  C   UNL     1       9.078   8.359  17.851  0.00  0.00    +0.203 A 
ATOM      7  N   UNL     1       9.614   8.879  16.630  0.00  0.00    -0.251 N 
ATOM      8  H   UNL     1       9.118   8.633  15.745  0.00  0.00    +0.158 HD
ATOM      9  C   UNL     1      10.562   9.954  16.611  0.00  0.00    +0.257 C 
ATOM     10  O   UNL     1      10.789  10.613  17.663  0.00  0.00    -0.269 OA
ATOM     11  N   UNL     1       7.742   8.328  18.091  0.00  0.00    -0.214 NA
ATOM     12  C   UNL     1       7.673   7.771  19.313  0.00  0.00    +0.091 A 
ATOM     13  C   UNL     1       6.525   7.515  20.057  0.00  0.00    +0.034 A 
ENDROOT
BRANCH   9  14
ATOM     14  C   UNL     1      11.256  10.326  15.368  0.00  0.00    +0.075 A 
ATOM     15  S   UNL     1      11.412   9.332  14.018  0.00  0.00    -0.084 S 
ATOM     16  C   UNL     1      12.277  10.432  13.082  0.00  0.00    +0.023 A 
ATOM     17  C   UNL     1      12.452  11.599  13.819  0.00  0.00    +0.017 A 
ATOM     18  C   UNL     1      11.879  11.542  15.096  0.00  0.00    +0.021 A 
BRANCH  16  19
ATOM     19  C   UNL     1      12.759  10.188  11.715  0.00  0.00    +0.026 A 
ATOM     20  C   UNL     1      12.280   9.269  10.800  0.00  0.00    +0.143 A 
ATOM     21  N   UNL     1      13.001   9.358   9.666  0.00  0.00    -0.182 NA
ATOM     22  N   UNL     1      13.913  10.302   9.839  0.00  0.00    -0.284 N 
ATOM     23  H   UNL     1      14.612  10.583   9.117  0.00  0.00    +0.188 HD
ATOM     24  C   UNL     1      13.797  10.828  11.072  0.00  0.00    +0.114 A 
ENDBRANCH  16  19
ENDBRANCH   9  14
BRANCH   1  25
ATOM     25  C   UNL     1       5.470   6.658  22.193  0.00  0.00    +0.120 C 
BRANCH  25  28
ATOM     26  C   UNL     1       6.006   3.638  22.339  0.00  0.00    +0.026 C 
ATOM     27  C   UNL     1       4.628   4.320  22.329  0.00  0.00    +0.080 C 
ATOM     28  N   UNL     1       4.611   5.603  21.582  0.00  0.00    -0.288 NA
ATOM     29  C   UNL     1       3.186   6.008  21.430  0.00  0.00    +0.080 C 
ATOM     30  C   UNL     1       3.004   7.380  20.759  0.00  0.00    +0.026 C 
ATOM     31  C   UNL     1       2.405   5.885  22.773  0.00  0.00    +0.178 C 
ATOM     32  O   UNL     1       3.273   5.698  23.876  0.00  0.00    -0.377 OA
ATOM     33  C   UNL     1       4.018   4.497  23.745  0.00  0.00    +0.178 C 
ENDBRANCH  25  28
ENDBRANCH   1  25
BRANCH   5  34
ATOM     34  C   UNL     1      11.279   7.559  18.871  0.00  0.00    +0.159 C 
BRANCH  34  35
ATOM     35  C   UNL     1      11.663   6.327  18.006  0.00  0.00    +0.078 C 
ATOM     36  C   UNL     1      10.576   5.242  18.152  0.00  0.00    +0.043 C 
ATOM     37  C   UNL     1      13.007   5.736  18.459  0.00  0.00    +0.043 C 
BRANCH  35  38
ATOM     38  O   UNL     1      11.783   6.697  16.653  0.00  0.00    -0.387 OA
ATOM     39  H   UNL     1      12.750   6.783  16.443  0.00  0.00    +0.210 HD
ENDBRANCH  35  38
ENDBRANCH  34  35
ENDBRANCH   5  34
TORSDOF 7
ENDMDL
MODEL 6
REMARK VINA RESULT:    -7.491      3.809     11.593
REMARK INTER + INTRA:         -11.557
REMARK INTER:                 -10.476
REMARK INTRA:                  -1.081
REMARK UNBOUND:                -1.219
REMARK  Name = 
REMARK  11 active torsions:
REMARK  status: ('A' for Active; 'I' for Inactive)
REMARK    1  A    between atoms: C_1  and  C_2
REMARK    2  A    between atoms: C_6  and  C_36
REMARK    3  A    between atoms: N_7  and  C_8
REMARK    4  A    between atoms: C_8  and  C_9
REMARK    5  A    between atoms: N_15  and  C_31
REMARK    6  A    between atoms: C_19  and  C_21
REMARK    7  A    between atoms: C_24  and  C_26
REMARK    8  A    between atoms: C_31  and  C_32
REMARK    9  A    between atoms: C_32  and  C_33
REMARK   10  A    between atoms: C_32  and  C_34
REMARK   11  A    between atoms: C_32  and  O_35
REMARK                            x       y       z     vdW  Elec       q    Type
REMARK                         _______ _______ _______ _____ _____    ______ ____
ROOT
ATOM      1  C   UNL     1      12.009   9.102  15.598  0.00  0.00    -0.031 A 
ATOM      2  C   UNL     1      12.423   7.799  15.979  0.00  0.00    +0.007 A 
ATOM      3  C   UNL     1      11.654   7.033  16.873  0.00  0.00    +0.028 A 
ATOM      4  C   UNL     1      10.472   7.592  17.362  0.00  0.00    +0.070 A 
ATOM      5  N   UNL     1       9.568   7.068  18.210  0.00  0.00    -0.309 N 
ATOM      6  C   UNL     1       8.616   8.039  18.300  0.00  0.00    +0.203 A 
ATOM      7  N   UNL     1       7.438   7.938  19.108  0.00  0.00    -0.251 N 
ATOM      8  H   UNL     1       7.162   8.781  19.660  0.00  0.00    +0.158 HD
ATOM      9  C   UNL     1       6.480   6.887  18.930  0.00  0.00    +0.257 C 
ATOM     10  O   UNL     1       6.544   6.142  17.915  0.00  0.00    -0.269 OA
ATOM     11  N   UNL     1       8.892   9.151  17.572  0.00  0.00    -0.214 NA
ATOM     12  C   UNL     1      10.061   8.839  16.984  0.00  0.00    +0.091 A 
ATOM     13  C   UNL     1      10.797   9.625  16.105  0.00  0.00    +0.034 A 
ENDROOT
BRANCH   9  14
ATOM     14  C   UNL     1       5.397   6.682  19.904  0.00  0.00    +0.075 A 
ATOM     15  S   UNL     1       5.199   5.302  20.850  0.00  0.00    -0.084 S 
ATOM     16  C   UNL     1       3.817   5.829  21.652  0.00  0.00    +0.023 A 
ATOM     17  C   UNL     1       3.493   7.101  21.190  0.00  0.00    +0.017 A 
ATOM     18  C   UNL     1       4.377   7.579  20.215  0.00  0.00    +0.021 A 
BRANCH  16  19
ATOM     19  C   UNL     1       3.084   5.063  22.671  0.00  0.00    +0.026 A 
ATOM     20  C   UNL     1       3.556   4.608  23.889  0.00  0.00    +0.143 A 
ATOM     21  N   UNL     1       2.570   3.943  24.523  0.00  0.00    -0.182 NA
ATOM     22  N   UNL     1       1.499   3.968  23.745  0.00  0.00    -0.284 N 
ATOM     23  H   UNL     1       0.586   3.527  23.990  0.00  0.00    +0.188 HD
ATOM     24  C   UNL     1       1.774   4.639  22.612  0.00  0.00    +0.114 A 
ENDBRANCH  16  19
ENDBRANCH   9  14
BRANCH   1  25
ATOM     25  C   UNL     1      12.824   9.896  14.611  0.00  0.00    +0.120 C 
BRANCH  25  28
ATOM     26  C   UNL     1      12.339  12.672  15.832  0.00  0.00    +0.026 C 
ATOM     27  C   UNL     1      12.455  12.341  14.335  0.00  0.00    +0.080 C 
ATOM     28  N   UNL     1      11.994  10.971  13.996  0.00  0.00    -0.288 NA
ATOM     29  C   UNL     1      11.912  10.887  12.512  0.00  0.00    +0.080 C 
ATOM     30  C   UNL     1      11.541   9.486  11.994  0.00  0.00    +0.026 C 
ATOM     31  C   UNL     1      13.189  11.464  11.829  0.00  0.00    +0.178 C 
ATOM     32  O   UNL     1      14.239  11.668  12.757  0.00  0.00    -0.377 OA
ATOM     33  C   UNL     1      13.868  12.609  13.752  0.00  0.00    +0.178 C 
ENDBRANCH  25  28
ENDBRANCH   1  25
BRANCH   5  34
ATOM     34  C   UNL     1       9.675   5.813  18.971  0.00  0.00    +0.159 C 
BRANCH  34  35
ATOM     35  C   UNL     1      10.154   6.045  20.430  0.00  0.00    +0.078 C 
ATOM     36  C   UNL     1      11.606   5.546  20.576  0.00  0.00    +0.043 C 
ATOM     37  C   UNL     1       9.270   5.277  21.426  0.00  0.00    +0.043 C 
BRANCH  35  38
ATOM     38  O   UNL     1      10.088   7.414  20.756  0.00  0.00    -0.387 OA
ATOM     39  H   UNL     1       9.182   7.742  20.517  0.00  0.00    +0.210 HD
ENDBRANCH  35  38
ENDBRANCH  34  35
ENDBRANCH   5  34
TORSDOF 7
ENDMDL
MODEL 7
REMARK VINA RESULT:    -7.440      2.693     11.248
REMARK INTER + INTRA:         -11.486
REMARK INTER:                 -10.476
REMARK INTRA:                  -1.011
REMARK UNBOUND:                -1.219
REMARK  Name = 
REMARK  11 active torsions:
REMARK  status: ('A' for Active; 'I' for Inactive)
REMARK    1  A    between atoms: C_1  and  C_2
REMARK    2  A    between atoms: C_6  and  C_36
REMARK    3  A    between atoms: N_7  and  C_8
REMARK    4  A    between atoms: C_8  and  C_9
REMARK    5  A    between atoms: N_15  and  C_31
REMARK    6  A    between atoms: C_19  and  C_21
REMARK    7  A    between atoms: C_24  and  C_26
REMARK    8  A    between atoms: C_31  and  C_32
REMARK    9  A    between atoms: C_32  and  C_33
REMARK   10  A    between atoms: C_32  and  C_34
REMARK   11  A    between atoms: C_32  and  O_35
REMARK                            x       y       z     vdW  Elec       q    Type
REMARK                         _______ _______ _______ _____ _____    ______ ____
ROOT
ATOM      1  C   UNL     1      14.417  10.664  10.659  0.00  0.00    -0.031 A 
ATOM      2  C   UNL     1      14.496  11.790  11.519  0.00  0.00    +0.007 A 
ATOM      3  C   UNL     1      13.652  11.901  12.639  0.00  0.00    +0.028 A 
ATOM      4  C   UNL     1      12.747  10.865  12.878  0.00  0.00    +0.070 A 
ATOM      5  N   UNL     1      11.850  10.731  13.872  0.00  0.00    -0.309 N 
ATOM      6  C   UNL     1      11.274   9.521  13.619  0.00  0.00    +0.203 A 
ATOM      7  N   UNL     1      10.237   8.941  14.418  0.00  0.00    -0.251 N 
ATOM      8  H   UNL     1       9.440   8.491  13.916  0.00  0.00    +0.158 HD
ATOM      9  C   UNL     1      10.414   8.667  15.814  0.00  0.00    +0.257 C 
ATOM     10  O   UNL     1      11.564   8.736  16.329  0.00  0.00    -0.269 OA
ATOM     11  N   UNL     1      11.747   8.908  12.505  0.00  0.00    -0.214 NA
ATOM     12  C   UNL     1      12.679   9.771  12.063  0.00  0.00    +0.091 A 
ATOM     13  C   UNL     1      13.495   9.630  10.946  0.00  0.00    +0.034 A 
ENDROOT
BRANCH   9  14
ATOM     14  C   UNL     1       9.273   8.273  16.655  0.00  0.00    +0.075 A 
ATOM     15  S   UNL     1       7.838   7.604  16.081  0.00  0.00    -0.084 S 
ATOM     16  C   UNL     1       7.099   7.443  17.585  0.00  0.00    +0.023 A 
ATOM     17  C   UNL     1       7.974   7.911  18.561  0.00  0.00    +0.017 A 
ATOM     18  C   UNL     1       9.190   8.372  18.042  0.00  0.00    +0.021 A 
BRANCH  16  19
ATOM     19  C   UNL     1       5.753   6.896  17.815  0.00  0.00    +0.026 A 
ATOM     20  C   UNL     1       5.284   5.639  17.483  0.00  0.00    +0.143 A 
ATOM     21  N   UNL     1       3.994   5.537  17.859  0.00  0.00    -0.182 NA
ATOM     22  N   UNL     1       3.642   6.685  18.415  0.00  0.00    -0.284 N 
ATOM     23  H   UNL     1       2.692   6.885  18.798  0.00  0.00    +0.188 HD
ATOM     24  C   UNL     1       4.685   7.535  18.406  0.00  0.00    +0.114 A 
ENDBRANCH  16  19
ENDBRANCH   9  14
BRANCH   1  25
ATOM     25  C   UNL     1      15.351  10.542   9.485  0.00  0.00    +0.120 C 
BRANCH  25  28
ATOM     26  C   UNL     1      15.828   7.514   9.665  0.00  0.00    +0.026 C 
ATOM     27  C   UNL     1      16.863   8.577   9.263  0.00  0.00    +0.080 C 
ATOM     28  N   UNL     1      16.630   9.897   9.902  0.00  0.00    -0.288 NA
ATOM     29  C   UNL     1      17.834  10.734   9.639  0.00  0.00    +0.080 C 
ATOM     30  C   UNL     1      17.704  12.178  10.155  0.00  0.00    +0.026 C 
ATOM     31  C   UNL     1      18.270  10.665   8.145  0.00  0.00    +0.178 C 
ATOM     32  O   UNL     1      17.278  10.067   7.330  0.00  0.00    -0.377 OA
ATOM     33  C   UNL     1      17.027   8.728   7.727  0.00  0.00    +0.178 C 
ENDBRANCH  25  28
ENDBRANCH   1  25
BRANCH   5  34
ATOM     34  C   UNL     1      11.483  11.728  14.890  0.00  0.00    +0.159 C 
BRANCH  34  35
ATOM     35  C   UNL     1      12.547  11.843  16.016  0.00  0.00    +0.078 C 
ATOM     36  C   UNL     1      11.836  11.923  17.383  0.00  0.00    +0.043 C 
ATOM     37  C   UNL     1      13.401  13.108  15.835  0.00  0.00    +0.043 C 
BRANCH  35  38
ATOM     38  O   UNL     1      13.407  10.729  15.994  0.00  0.00    -0.387 OA
ATOM     39  H   UNL     1      14.212  10.974  15.467  0.00  0.00    +0.210 HD
ENDBRANCH  35  38
ENDBRANCH  34  35
ENDBRANCH   5  34
TORSDOF 7
ENDMDL
MODEL 8
REMARK VINA RESULT:    -7.392      4.268     11.843
REMARK INTER + INTRA:         -11.420
REMARK INTER:                 -10.274
REMARK INTRA:                  -1.146
REMARK UNBOUND:                -1.219
REMARK  Name = 
REMARK  11 active torsions:
REMARK  status: ('A' for Active; 'I' for Inactive)
REMARK    1  A    between atoms: C_1  and  C_2
REMARK    2  A    between atoms: C_6  and  C_36
REMARK    3  A    between atoms: N_7  and  C_8
REMARK    4  A    between atoms: C_8  and  C_9
REMARK    5  A    between atoms: N_15  and  C_31
REMARK    6  A    between atoms: C_19  and  C_21
REMARK    7  A    between atoms: C_24  and  C_26
REMARK    8  A    between atoms: C_31  and  C_32
REMARK    9  A    between atoms: C_32  and  C_33
REMARK   10  A    between atoms: C_32  and  C_34
REMARK   11  A    between atoms: C_32  and  O_35
REMARK                            x       y       z     vdW  Elec       q    Type
REMARK                         _______ _______ _______ _____ _____    ______ ____
ROOT
ATOM      1  C   UNL     1      12.102  10.046  16.271  0.00  0.00    -0.031 A 
ATOM      2  C   UNL     1      11.211   9.581  15.269  0.00  0.00    +0.007 A 
ATOM      3  C   UNL     1      10.189   8.669  15.582  0.00  0.00    +0.028 A 
ATOM      4  C   UNL     1      10.076   8.246  16.908  0.00  0.00    +0.070 A 
ATOM      5  N   UNL     1       9.190   7.396  17.459  0.00  0.00    -0.309 N 
ATOM      6  C   UNL     1       9.535   7.388  18.778  0.00  0.00    +0.203 A 
ATOM      7  N   UNL     1       8.870   6.610  19.779  0.00  0.00    -0.251 N 
ATOM      8  H   UNL     1       9.467   6.114  20.477  0.00  0.00    +0.158 HD
ATOM      9  C   UNL     1       7.470   6.756  20.052  0.00  0.00    +0.257 C 
ATOM     10  O   UNL     1       6.830   7.726  19.560  0.00  0.00    -0.269 OA
ATOM     11  N   UNL     1      10.605   8.169  19.072  0.00  0.00    -0.214 NA
ATOM     12  C   UNL     1      10.920   8.704  17.879  0.00  0.00    +0.091 A 
ATOM     13  C   UNL     1      11.944   9.605  17.604  0.00  0.00    +0.034 A 
ENDROOT
BRANCH   9  14
ATOM     14  C   UNL     1       6.769   5.804  20.927  0.00  0.00    +0.075 A 
ATOM     15  S   UNL     1       5.272   6.080  21.648  0.00  0.00    -0.084 S 
ATOM     16  C   UNL     1       5.173   4.595  22.434  0.00  0.00    +0.023 A 
ATOM     17  C   UNL     1       6.316   3.859  22.137  0.00  0.00    +0.017 A 
ATOM     18  C   UNL     1       7.207   4.532  21.292  0.00  0.00    +0.021 A 
BRANCH  16  19
ATOM     19  C   UNL     1       4.058   4.159  23.288  0.00  0.00    +0.026 A 
ATOM     20  C   UNL     1       2.705   4.334  23.066  0.00  0.00    +0.143 A 
ATOM     21  N   UNL     1       2.017   3.795  24.092  0.00  0.00    -0.182 NA
ATOM     22  N   UNL     1       2.893   3.289  24.946  0.00  0.00    -0.284 N 
ATOM     23  H   UNL     1       2.635   2.808  25.835  0.00  0.00    +0.188 HD
ATOM     24  C   UNL     1       4.142   3.491  24.491  0.00  0.00    +0.114 A 
ENDBRANCH  16  19
ENDBRANCH   9  14
BRANCH   1  25
ATOM     25  C   UNL     1      13.169  11.052  15.927  0.00  0.00    +0.120 C 
BRANCH  25  28
ATOM     26  C   UNL     1      11.387  13.368  16.870  0.00  0.00    +0.026 C 
ATOM     27  C   UNL     1      12.430  13.421  15.741  0.00  0.00    +0.080 C 
ATOM     28  N   UNL     1      12.614  12.121  15.048  0.00  0.00    -0.288 NA
ATOM     29  C   UNL     1      13.434  12.380  13.832  0.00  0.00    +0.080 C 
ATOM     30  C   UNL     1      13.800  11.105  13.052  0.00  0.00    +0.026 C 
ATOM     31  C   UNL     1      14.674  13.268  14.152  0.00  0.00    +0.178 C 
ATOM     32  O   UNL     1      14.897  13.387  15.546  0.00  0.00    -0.377 OA
ATOM     33  C   UNL     1      13.795  14.006  16.190  0.00  0.00    +0.178 C 
ENDBRANCH  25  28
ENDBRANCH   1  25
BRANCH   5  34
ATOM     34  C   UNL     1       8.195   6.564  16.765  0.00  0.00    +0.159 C 
BRANCH  34  35
ATOM     35  C   UNL     1       6.945   7.377  16.329  0.00  0.00    +0.078 C 
ATOM     36  C   UNL     1       5.670   6.624  16.764  0.00  0.00    +0.043 C 
ATOM     37  C   UNL     1       6.912   7.553  14.802  0.00  0.00    +0.043 C 
BRANCH  35  38
ATOM     38  O   UNL     1       6.963   8.656  16.916  0.00  0.00    -0.387 OA
ATOM     39  H   UNL     1       7.362   9.288  16.261  0.00  0.00    +0.210 HD
ENDBRANCH  35  38
ENDBRANCH  34  35
ENDBRANCH   5  34
TORSDOF 7
ENDMDL
MODEL 9
REMARK VINA RESULT:    -7.237      9.591     13.550
REMARK INTER + INTRA:         -11.205
REMARK INTER:                 -10.063
REMARK INTRA:                  -1.142
REMARK UNBOUND:                -1.219
REMARK  Name = 
REMARK  11 active torsions:
REMARK  status: ('A' for Active; 'I' for Inactive)
REMARK    1  A    between atoms: C_1  and  C_2
REMARK    2  A    between atoms: C_6  and  C_36
REMARK    3  A    between atoms: N_7  and  C_8
REMARK    4  A    between atoms: C_8  and  C_9
REMARK    5  A    between atoms: N_15  and  C_31
REMARK    6  A    between atoms: C_19  and  C_21
REMARK    7  A    between atoms: C_24  and  C_26
REMARK    8  A    between atoms: C_31  and  C_32
REMARK    9  A    between atoms: C_32  and  C_33
REMARK   10  A    between atoms: C_32  and  C_34
REMARK   11  A    between atoms: C_32  and  O_35
REMARK                            x       y       z     vdW  Elec       q    Type
REMARK                         _______ _______ _______ _____ _____    ______ ____
ROOT
ATOM      1  C   UNL     1       6.380   6.142  22.066  0.00  0.00    -0.031 A 
ATOM      2  C   UNL     1       7.708   6.520  21.736  0.00  0.00    +0.007 A 
ATOM      3  C   UNL     1       8.807   5.814  22.258  0.00  0.00    +0.028 A 
ATOM      4  C   UNL     1       8.546   4.730  23.099  0.00  0.00    +0.070 A 
ATOM      5  N   UNL     1       9.410   3.900  23.711  0.00  0.00    -0.309 N 
ATOM      6  C   UNL     1       8.598   3.022  24.366  0.00  0.00    +0.203 A 
ATOM      7  N   UNL     1       9.069   1.941  25.176  0.00  0.00    -0.251 N 
ATOM      8  H   UNL     1       8.587   1.778  26.088  0.00  0.00    +0.158 HD
ATOM      9  C   UNL     1       9.914   0.908  24.652  0.00  0.00    +0.257 C 
ATOM     10  O   UNL     1      10.093   0.812  23.407  0.00  0.00    -0.269 OA
ATOM     11  N   UNL     1       7.273   3.279  24.214  0.00  0.00    -0.214 NA
ATOM     12  C   UNL     1       7.270   4.353  23.405  0.00  0.00    +0.091 A 
ATOM     13  C   UNL     1       6.160   5.029  22.909  0.00  0.00    +0.034 A 
ENDROOT
BRANCH   9  14
ATOM     14  C   UNL     1      10.556  -0.068  25.547  0.00  0.00    +0.075 A 
ATOM     15  S   UNL     1      11.201  -1.544  25.057  0.00  0.00    -0.084 S 
ATOM     16  C   UNL     1      11.720  -2.030  26.583  0.00  0.00    +0.023 A 
ATOM     17  C   UNL     1      11.397  -1.034  27.499  0.00  0.00    +0.017 A 
ATOM     18  C   UNL     1      10.749   0.065  26.920  0.00  0.00    +0.021 A 
BRANCH  16  19
ATOM     19  C   UNL     1      12.403  -3.297  26.884  0.00  0.00    +0.026 A 
ATOM     20  C   UNL     1      11.998  -4.576  26.549  0.00  0.00    +0.143 A 
ATOM     21  N   UNL     1      12.901  -5.461  27.017  0.00  0.00    -0.182 NA
ATOM     22  N   UNL     1      13.855  -4.779  27.631  0.00  0.00    -0.284 N 
ATOM     23  H   UNL     1      14.686  -5.214  28.089  0.00  0.00    +0.188 HD
ATOM     24  C   UNL     1      13.587  -3.462  27.571  0.00  0.00    +0.114 A 
ENDBRANCH  16  19
ENDBRANCH   9  14
BRANCH   1  25
ATOM     25  C   UNL     1       5.213   6.885  21.470  0.00  0.00    +0.120 C 
BRANCH  25  28
ATOM     26  C   UNL     1       2.689   5.740  22.791  0.00  0.00    +0.026 C 
ATOM     27  C   UNL     1       2.865   6.079  21.302  0.00  0.00    +0.080 C 
ATOM     28  N   UNL     1       4.264   5.932  20.826  0.00  0.00    -0.288 NA
ATOM     29  C   UNL     1       4.237   6.029  19.340  0.00  0.00    +0.080 C 
ATOM     30  C   UNL     1       5.635   5.996  18.696  0.00  0.00    +0.026 C 
ATOM     31  C   UNL     1       3.378   7.235  18.855  0.00  0.00    +0.178 C 
ATOM     32  O   UNL     1       3.059   8.119  19.915  0.00  0.00    -0.377 OA
ATOM     33  C   UNL     1       2.291   7.468  20.914  0.00  0.00    +0.178 C 
ENDBRANCH  25  28
ENDBRANCH   1  25
BRANCH   5  34
ATOM     34  C   UNL     1      10.875   4.018  23.775  0.00  0.00    +0.159 C 
BRANCH  34  35
ATOM     35  C   UNL     1      11.361   4.612  25.127  0.00  0.00    +0.078 C 
ATOM     36  C   UNL     1      12.165   5.901  24.858  0.00  0.00    +0.043 C 
ATOM     37  C   UNL     1      12.268   3.616  25.867  0.00  0.00    +0.043 C 
BRANCH  35  38
ATOM     38  O   UNL     1      10.263   4.903  25.958  0.00  0.00    -0.387 OA
ATOM     39  H   UNL     1       9.445   4.550  25.519  0.00  0.00    +0.210 HD
ENDBRANCH  35  38
ENDBRANCH  34  35
ENDBRANCH   5  34
TORSDOF 7
ENDMDL
