MODEL 1
REMARK VINA RESULT:    -8.419      0.000      0.000
REMARK INTER + INTRA:         -13.493
REMARK INTER:                 -12.602
REMARK INTRA:                  -0.891
REMARK UNBOUND:                -0.891
REMARK  Name = 
REMARK  12 active torsions:
REMARK  status: ('A' for Active; 'I' for Inactive)
REMARK    1  A    between atoms: C_1  and  C_2
REMARK    2  A    between atoms: C_2  and  C_3
REMARK    3  A    between atoms: C_2  and  C_4
REMARK    4  A    between atoms: C_2  and  O_37
REMARK    5  A    between atoms: C_4  and  N_5
REMARK    6  A    between atoms: C_9  and  C_12
REMARK    7  A    between atoms: C_12  and  N_13
REMARK    8  A    between atoms: N_13  and  C_14
REMARK    9  A    between atoms: N_13  and  C_15
REMARK   10  A    between atoms: C_15  and  C_16
REMARK   11  A    between atoms: C_25  and  C_27
REMARK   12  A    between atoms: C_30  and  C_32
REMARK                            x       y       z     vdW  Elec       q    Type
REMARK                         _______ _______ _______ _____ _____    ______ ____
ROOT
ATOM      1  N   UNL     1       9.009   7.553  17.316  0.00  0.00    -0.309 N 
ATOM      2  C   UNL     1       9.114   6.448  18.107  0.00  0.00    +0.203 A 
ATOM      3  N   UNL     1       8.044   5.921  18.899  0.00  0.00    -0.251 N 
ATOM      4  H   UNL     1       7.885   4.890  18.867  0.00  0.00    +0.158 HD
ATOM      5  C   UNL     1       7.405   6.689  19.929  0.00  0.00    +0.257 C 
ATOM      6  O   UNL     1       7.875   7.811  20.261  0.00  0.00    -0.269 OA
ATOM      7  N   UNL     1      10.326   5.841  18.047  0.00  0.00    -0.214 NA
ATOM      8  C   UNL     1      11.011   6.626  17.196  0.00  0.00    +0.091 A 
ATOM      9  C   UNL     1      12.325   6.463  16.770  0.00  0.00    +0.034 A 
ATOM     10  C   UNL     1      12.853   7.407  15.861  0.00  0.00    -0.031 A 
ATOM     11  C   UNL     1      12.033   8.471  15.400  0.00  0.00    +0.007 A 
ATOM     12  C   UNL     1      10.706   8.601  15.846  0.00  0.00    +0.028 A 
ATOM     13  C   UNL     1      10.228   7.653  16.753  0.00  0.00    +0.070 A 
ENDROOT
BRANCH   5  14
ATOM     14  C   UNL     1       6.216   6.167  20.624  0.00  0.00    +0.075 A 
ATOM     15  S   UNL     1       6.222   5.261  22.043  0.00  0.00    -0.084 S 
ATOM     16  C   UNL     1       4.551   5.085  22.150  0.00  0.00    +0.023 A 
ATOM     17  C   UNL     1       3.967   5.733  21.068  0.00  0.00    +0.017 A 
ATOM     18  C   UNL     1       4.897   6.337  20.214  0.00  0.00    +0.021 A 
BRANCH  16  19
ATOM     19  C   UNL     1       3.839   4.371  23.222  0.00  0.00    +0.026 A 
ATOM     20  C   UNL     1       2.473   4.319  23.427  0.00  0.00    +0.143 A 
ATOM     21  N   UNL     1       2.219   3.554  24.506  0.00  0.00    -0.182 NA
ATOM     22  N   UNL     1       3.378   3.126  24.984  0.00  0.00    -0.284 N 
ATOM     23  H   UNL     1       3.478   2.511  25.821  0.00  0.00    +0.188 HD
ATOM     24  C   UNL     1       4.384   3.602  24.229  0.00  0.00    +0.114 A 
ENDBRANCH  16  19
ENDBRANCH   5  14
BRANCH   1  25
ATOM     25  C   UNL     1       7.814   8.352  17.007  0.00  0.00    +0.159 C 
BRANCH  25  27
ATOM     26  C   UNL     1       5.856   6.811  16.695  0.00  0.00    +0.043 C 
ATOM     27  C   UNL     1       6.905   7.666  15.957  0.00  0.00    +0.078 C 
ATOM     28  C   UNL     1       7.737   6.763  15.025  0.00  0.00    +0.043 C 
BRANCH  27  29
ATOM     29  O   UNL     1       6.250   8.658  15.204  0.00  0.00    -0.387 OA
ATOM     30  H   UNL     1       6.417   9.536  15.638  0.00  0.00    +0.210 HD
ENDBRANCH  27  29
ENDBRANCH  25  27
ENDBRANCH   1  25
BRANCH  10  31
ATOM     31  C   UNL     1      14.283   7.281  15.376  0.00  0.00    +0.119 C 
BRANCH  31  32
ATOM     32  N   UNL     1      14.396   6.826  13.971  0.00  0.00    -0.297 NA
ATOM     33  C   UNL     1      15.066   5.516  13.864  0.00  0.00    +0.105 C 
BRANCH  32  34
ATOM     34  C   UNL     1      15.026   7.837  13.098  0.00  0.00    +0.121 C 
BRANCH  34  35
ATOM     35  C   UNL     1      14.069   8.277  12.023  0.00  0.00    -0.015 A 
ATOM     36  C   UNL     1      13.362   9.483  12.135  0.00  0.00    +0.008 A 
ATOM     37  C   UNL     1      12.500   9.885  11.113  0.00  0.00    +0.020 A 
ATOM     38  C   UNL     1      12.354   9.077   9.984  0.00  0.00    +0.111 A 
ATOM     39  N   UNL     1      13.051   7.914   9.885  0.00  0.00    -0.263 NA
ATOM     40  C   UNL     1      13.897   7.502  10.866  0.00  0.00    +0.115 A 
ENDBRANCH  34  35
ENDBRANCH  32  34
ENDBRANCH  31  32
ENDBRANCH  10  31
TORSDOF 9
ENDMDL
MODEL 2
REMARK VINA RESULT:    -8.252      3.305     11.223
REMARK INTER + INTRA:         -13.244
REMARK INTER:                 -11.921
REMARK INTRA:                  -1.323
REMARK UNBOUND:                -0.891
REMARK  Name = 
REMARK  12 active torsions:
REMARK  status: ('A' for Active; 'I' for Inactive)
REMARK    1  A    between atoms: C_1  and  C_2
REMARK    2  A    between atoms: C_2  and  C_3
REMARK    3  A    between atoms: C_2  and  C_4
REMARK    4  A    between atoms: C_2  and  O_37
REMARK    5  A    between atoms: C_4  and  N_5
REMARK    6  A    between atoms: C_9  and  C_12
REMARK    7  A    between atoms: C_12  and  N_13
REMARK    8  A    between atoms: N_13  and  C_14
REMARK    9  A    between atoms: N_13  and  C_15
REMARK   10  A    between atoms: C_15  and  C_16
REMARK   11  A    between atoms: C_25  and  C_27
REMARK   12  A    between atoms: C_30  and  C_32
REMARK                            x       y       z     vdW  Elec       q    Type
REMARK                         _______ _______ _______ _____ _____    ______ ____
ROOT
ATOM      1  N   UNL     1       8.578   6.097  19.201  0.00  0.00    -0.309 N 
ATOM      2  C   UNL     1       7.921   6.834  18.261  0.00  0.00    +0.203 A 
ATOM      3  N   UNL     1       8.566   7.529  17.189  0.00  0.00    -0.251 N 
ATOM      4  H   UNL     1       8.152   7.433  16.235  0.00  0.00    +0.158 HD
ATOM      5  C   UNL     1       9.541   8.556  17.420  0.00  0.00    +0.257 C 
ATOM      6  O   UNL     1       9.748   8.976  18.591  0.00  0.00    -0.269 OA
ATOM      7  N   UNL     1       6.570   6.816  18.392  0.00  0.00    -0.214 NA
ATOM      8  C   UNL     1       6.387   6.052  19.483  0.00  0.00    +0.091 A 
ATOM      9  C   UNL     1       5.177   5.700  20.074  0.00  0.00    +0.034 A 
ATOM     10  C   UNL     1       5.211   4.876  21.221  0.00  0.00    -0.031 A 
ATOM     11  C   UNL     1       6.459   4.423  21.723  0.00  0.00    +0.007 A 
ATOM     12  C   UNL     1       7.662   4.792  21.097  0.00  0.00    +0.028 A 
ATOM     13  C   UNL     1       7.585   5.616  19.973  0.00  0.00    +0.070 A 
ENDROOT
BRANCH   5  14
ATOM     14  C   UNL     1      10.287   9.148  16.296  0.00  0.00    +0.075 A 
ATOM     15  S   UNL     1      11.231  10.540  16.364  0.00  0.00    -0.084 S 
ATOM     16  C   UNL     1      11.701  10.517  14.748  0.00  0.00    +0.023 A 
ATOM     17  C   UNL     1      11.118   9.416  14.132  0.00  0.00    +0.017 A 
ATOM     18  C   UNL     1      10.326   8.651  14.997  0.00  0.00    +0.021 A 
BRANCH  16  19
ATOM     19  C   UNL     1      12.591  11.499  14.107  0.00  0.00    +0.026 A 
ATOM     20  C   UNL     1      12.969  11.543  12.779  0.00  0.00    +0.143 A 
ATOM     21  N   UNL     1      13.782  12.599  12.587  0.00  0.00    -0.182 NA
ATOM     22  N   UNL     1      13.927  13.217  13.750  0.00  0.00    -0.284 N 
ATOM     23  H   UNL     1      14.508  14.072  13.892  0.00  0.00    +0.188 HD
ATOM     24  C   UNL     1      13.218  12.577  14.695  0.00  0.00    +0.114 A 
ENDBRANCH  16  19
ENDBRANCH   5  14
BRANCH   1  25
ATOM     25  C   UNL     1      10.007   5.757  19.268  0.00  0.00    +0.159 C 
BRANCH  25  27
ATOM     26  C   UNL     1      12.063   7.020  19.964  0.00  0.00    +0.043 C 
ATOM     27  C   UNL     1      10.719   6.450  20.457  0.00  0.00    +0.078 C 
ATOM     28  C   UNL     1      10.977   5.443  21.596  0.00  0.00    +0.043 C 
BRANCH  27  29
ATOM     29  O   UNL     1       9.910   7.503  20.923  0.00  0.00    -0.387 OA
ATOM     30  H   UNL     1       9.424   7.886  20.145  0.00  0.00    +0.210 HD
ENDBRANCH  27  29
ENDBRANCH  25  27
ENDBRANCH   1  25
BRANCH  10  31
ATOM     31  C   UNL     1       3.921   4.475  21.907  0.00  0.00    +0.119 C 
BRANCH  31  32
ATOM     32  N   UNL     1       3.194   5.612  22.520  0.00  0.00    -0.297 NA
ATOM     33  C   UNL     1       3.340   5.638  23.988  0.00  0.00    +0.105 C 
BRANCH  32  34
ATOM     34  C   UNL     1       1.777   5.665  22.108  0.00  0.00    +0.121 C 
BRANCH  34  35
ATOM     35  C   UNL     1       1.607   6.569  20.916  0.00  0.00    -0.015 A 
ATOM     36  C   UNL     1       0.811   6.186  19.828  0.00  0.00    +0.008 A 
ATOM     37  C   UNL     1       0.645   7.051  18.745  0.00  0.00    +0.020 A 
ATOM     38  C   UNL     1       1.275   8.297  18.762  0.00  0.00    +0.111 A 
ATOM     39  N   UNL     1       2.039   8.659  19.826  0.00  0.00    -0.263 NA
ATOM     40  C   UNL     1       2.215   7.834  20.893  0.00  0.00    +0.115 A 
ENDBRANCH  34  35
ENDBRANCH  32  34
ENDBRANCH  31  32
ENDBRANCH  10  31
TORSDOF 9
ENDMDL
MODEL 3
REMARK VINA RESULT:    -8.152      2.033      2.913
REMARK INTER + INTRA:         -13.094
REMARK INTER:                 -12.107
REMARK INTRA:                  -0.986
REMARK UNBOUND:                -0.891
REMARK  Name = 
REMARK  12 active torsions:
REMARK  status: ('A' for Active; 'I' for Inactive)
REMARK    1  A    between atoms: C_1  and  C_2
REMARK    2  A    between atoms: C_2  and  C_3
REMARK    3  A    between atoms: C_2  and  C_4
REMARK    4  A    between atoms: C_2  and  O_37
REMARK    5  A    between atoms: C_4  and  N_5
REMARK    6  A    between atoms: C_9  and  C_12
REMARK    7  A    between atoms: C_12  and  N_13
REMARK    8  A    between atoms: N_13  and  C_14
REMARK    9  A    between atoms: N_13  and  C_15
REMARK   10  A    between atoms: C_15  and  C_16
REMARK   11  A    between atoms: C_25  and  C_27
REMARK   12  A    between atoms: C_30  and  C_32
REMARK                            x       y       z     vdW  Elec       q    Type
REMARK                         _______ _______ _______ _____ _____    ______ ____
ROOT
ATOM      1  N   UNL     1       9.013   7.437  17.607  0.00  0.00    -0.309 N 
ATOM      2  C   UNL     1       9.356   6.293  18.263  0.00  0.00    +0.203 A 
ATOM      3  N   UNL     1       8.481   5.575  19.140  0.00  0.00    -0.251 N 
ATOM      4  H   UNL     1       8.434   4.539  19.029  0.00  0.00    +0.158 HD
ATOM      5  C   UNL     1       7.922   6.171  20.319  0.00  0.00    +0.257 C 
ATOM      6  O   UNL     1       8.309   7.312  20.692  0.00  0.00    -0.269 OA
ATOM      7  N   UNL     1      10.605   5.847  17.976  0.00  0.00    -0.214 NA
ATOM      8  C   UNL     1      11.064   6.777  17.120  0.00  0.00    +0.091 A 
ATOM      9  C   UNL     1      12.310   6.814  16.501  0.00  0.00    +0.034 A 
ATOM     10  C   UNL     1      12.588   7.887  15.625  0.00  0.00    -0.031 A 
ATOM     11  C   UNL     1      11.596   8.875  15.390  0.00  0.00    +0.007 A 
ATOM     12  C   UNL     1      10.344   8.803  16.026  0.00  0.00    +0.028 A 
ATOM     13  C   UNL     1      10.116   7.733  16.893  0.00  0.00    +0.070 A 
ENDROOT
BRANCH   5  14
ATOM     14  C   UNL     1       6.915   5.452  21.117  0.00  0.00    +0.075 A 
ATOM     15  S   UNL     1       5.285   5.855  21.245  0.00  0.00    -0.084 S 
ATOM     16  C   UNL     1       4.870   4.598  22.285  0.00  0.00    +0.023 A 
ATOM     17  C   UNL     1       6.011   3.847  22.549  0.00  0.00    +0.017 A 
ATOM     18  C   UNL     1       7.153   4.325  21.898  0.00  0.00    +0.021 A 
BRANCH  16  19
ATOM     19  C   UNL     1       3.521   4.340  22.811  0.00  0.00    +0.026 A 
ATOM     20  C   UNL     1       3.167   3.446  23.803  0.00  0.00    +0.143 A 
ATOM     21  N   UNL     1       1.837   3.515  24.005  0.00  0.00    -0.182 NA
ATOM     22  N   UNL     1       1.346   4.422  23.173  0.00  0.00    -0.284 N 
ATOM     23  H   UNL     1       0.337   4.681  23.115  0.00  0.00    +0.188 HD
ATOM     24  C   UNL     1       2.340   4.944  22.433  0.00  0.00    +0.114 A 
ENDBRANCH  16  19
ENDBRANCH   5  14
BRANCH   1  25
ATOM     25  C   UNL     1       7.704   8.105  17.547  0.00  0.00    +0.159 C 
BRANCH  25  27
ATOM     26  C   UNL     1       5.817   6.490  17.175  0.00  0.00    +0.043 C 
ATOM     27  C   UNL     1       6.773   7.478  16.480  0.00  0.00    +0.078 C 
ATOM     28  C   UNL     1       7.598   6.728  15.414  0.00  0.00    +0.043 C 
BRANCH  27  29
ATOM     29  O   UNL     1       6.023   8.501  15.871  0.00  0.00    -0.387 OA
ATOM     30  H   UNL     1       6.622   8.997  15.252  0.00  0.00    +0.210 HD
ENDBRANCH  27  29
ENDBRANCH  25  27
ENDBRANCH   1  25
BRANCH  10  31
ATOM     31  C   UNL     1      13.935   7.978  14.937  0.00  0.00    +0.119 C 
BRANCH  31  32
ATOM     32  N   UNL     1      15.005   7.216  15.621  0.00  0.00    -0.297 NA
ATOM     33  C   UNL     1      15.904   8.094  16.395  0.00  0.00    +0.105 C 
BRANCH  32  34
ATOM     34  C   UNL     1      15.754   6.339  14.698  0.00  0.00    +0.121 C 
BRANCH  34  35
ATOM     35  C   UNL     1      15.013   5.047  14.479  0.00  0.00    -0.015 A 
ATOM     36  C   UNL     1      14.661   4.628  13.188  0.00  0.00    +0.008 A 
ATOM     37  C   UNL     1      13.998   3.413  13.006  0.00  0.00    +0.020 A 
ATOM     38  C   UNL     1      13.696   2.625  14.117  0.00  0.00    +0.111 A 
ATOM     39  N   UNL     1      14.049   3.040  15.362  0.00  0.00    -0.263 NA
ATOM     40  C   UNL     1      14.696   4.219  15.566  0.00  0.00    +0.115 A 
ENDBRANCH  34  35
ENDBRANCH  32  34
ENDBRANCH  31  32
ENDBRANCH  10  31
TORSDOF 9
ENDMDL
MODEL 4
REMARK VINA RESULT:    -8.126      2.949     11.151
REMARK INTER + INTRA:         -13.055
REMARK INTER:                 -11.843
REMARK INTRA:                  -1.212
REMARK UNBOUND:                -0.891
REMARK  Name = 
REMARK  12 active torsions:
REMARK  status: ('A' for Active; 'I' for Inactive)
REMARK    1  A    between atoms: C_1  and  C_2
REMARK    2  A    between atoms: C_2  and  C_3
REMARK    3  A    between atoms: C_2  and  C_4
REMARK    4  A    between atoms: C_2  and  O_37
REMARK    5  A    between atoms: C_4  and  N_5
REMARK    6  A    between atoms: C_9  and  C_12
REMARK    7  A    between atoms: C_12  and  N_13
REMARK    8  A    between atoms: N_13  and  C_14
REMARK    9  A    between atoms: N_13  and  C_15
REMARK   10  A    between atoms: C_15  and  C_16
REMARK   11  A    between atoms: C_25  and  C_27
REMARK   12  A    between atoms: C_30  and  C_32
REMARK                            x       y       z     vdW  Elec       q    Type
REMARK                         _______ _______ _______ _____ _____    ______ ____
ROOT
ATOM      1  N   UNL     1       9.094   6.875  19.027  0.00  0.00    -0.309 N 
ATOM      2  C   UNL     1       8.475   7.369  17.918  0.00  0.00    +0.203 A 
ATOM      3  N   UNL     1       9.158   8.000  16.829  0.00  0.00    -0.251 N 
ATOM      4  H   UNL     1       8.890   7.712  15.863  0.00  0.00    +0.158 HD
ATOM      5  C   UNL     1       9.949   9.184  17.006  0.00  0.00    +0.257 C 
ATOM      6  O   UNL     1       9.942   9.786  18.114  0.00  0.00    -0.269 OA
ATOM      7  N   UNL     1       7.133   7.166  17.900  0.00  0.00    -0.214 NA
ATOM      8  C   UNL     1       6.911   6.541  19.069  0.00  0.00    +0.091 A 
ATOM      9  C   UNL     1       5.691   6.094  19.569  0.00  0.00    +0.034 A 
ATOM     10  C   UNL     1       5.682   5.450  20.826  0.00  0.00    -0.031 A 
ATOM     11  C   UNL     1       6.902   5.263  21.527  0.00  0.00    +0.007 A 
ATOM     12  C   UNL     1       8.118   5.719  20.989  0.00  0.00    +0.028 A 
ATOM     13  C   UNL     1       8.081   6.361  19.749  0.00  0.00    +0.070 A 
ENDROOT
BRANCH   5  14
ATOM     14  C   UNL     1      10.751   9.721  15.894  0.00  0.00    +0.075 A 
ATOM     15  S   UNL     1      10.901   9.035  14.364  0.00  0.00    -0.084 S 
ATOM     16  C   UNL     1      11.933  10.210  13.741  0.00  0.00    +0.023 A 
ATOM     17  C   UNL     1      12.178  11.155  14.731  0.00  0.00    +0.017 A 
ATOM     18  C   UNL     1      11.518  10.881  15.935  0.00  0.00    +0.021 A 
BRANCH  16  19
ATOM     19  C   UNL     1      12.472  10.228  12.372  0.00  0.00    +0.026 A 
ATOM     20  C   UNL     1      12.312   9.263  11.396  0.00  0.00    +0.143 A 
ATOM     21  N   UNL     1      12.949   9.657  10.277  0.00  0.00    -0.182 NA
ATOM     22  N   UNL     1      13.504  10.835  10.519  0.00  0.00    -0.284 N 
ATOM     23  H   UNL     1      14.063  11.376   9.822  0.00  0.00    +0.188 HD
ATOM     24  C   UNL     1      13.235  11.214  11.781  0.00  0.00    +0.114 A 
ENDBRANCH  16  19
ENDBRANCH   5  14
BRANCH   1  25
ATOM     25  C   UNL     1      10.534   6.767  19.305  0.00  0.00    +0.159 C 
BRANCH  25  27
ATOM     26  C   UNL     1      12.157   4.868  19.557  0.00  0.00    +0.043 C 
ATOM     27  C   UNL     1      11.182   5.558  18.585  0.00  0.00    +0.078 C 
ATOM     28  C   UNL     1      11.950   6.021  17.331  0.00  0.00    +0.043 C 
BRANCH  27  29
ATOM     29  O   UNL     1      10.171   4.650  18.218  0.00  0.00    -0.387 OA
ATOM     30  H   UNL     1      10.342   4.359  17.284  0.00  0.00    +0.210 HD
ENDBRANCH  27  29
ENDBRANCH  25  27
ENDBRANCH   1  25
BRANCH  10  31
ATOM     31  C   UNL     1       4.378   4.957  21.419  0.00  0.00    +0.119 C 
BRANCH  31  32
ATOM     32  N   UNL     1       3.690   5.963  22.262  0.00  0.00    -0.297 NA
ATOM     33  C   UNL     1       3.992   5.786  23.695  0.00  0.00    +0.105 C 
BRANCH  32  34
ATOM     34  C   UNL     1       2.235   6.012  22.009  0.00  0.00    +0.121 C 
BRANCH  34  35
ATOM     35  C   UNL     1       1.941   6.811  20.768  0.00  0.00    -0.015 A 
ATOM     36  C   UNL     1       1.022   6.350  19.814  0.00  0.00    +0.008 A 
ATOM     37  C   UNL     1       0.744   7.119  18.684  0.00  0.00    +0.020 A 
ATOM     38  C   UNL     1       1.386   8.347  18.517  0.00  0.00    +0.111 A 
ATOM     39  N   UNL     1       2.270   8.786  19.452  0.00  0.00    -0.263 NA
ATOM     40  C   UNL     1       2.557   8.055  20.563  0.00  0.00    +0.115 A 
ENDBRANCH  34  35
ENDBRANCH  32  34
ENDBRANCH  31  32
ENDBRANCH  10  31
TORSDOF 9
ENDMDL
MODEL 5
REMARK VINA RESULT:    -8.079      5.843     10.190
REMARK INTER + INTRA:         -12.985
REMARK INTER:                 -12.088
REMARK INTRA:                  -0.896
REMARK UNBOUND:                -0.891
REMARK  Name = 
REMARK  12 active torsions:
REMARK  status: ('A' for Active; 'I' for Inactive)
REMARK    1  A    between atoms: C_1  and  C_2
REMARK    2  A    between atoms: C_2  and  C_3
REMARK    3  A    between atoms: C_2  and  C_4
REMARK    4  A    between atoms: C_2  and  O_37
REMARK    5  A    between atoms: C_4  and  N_5
REMARK    6  A    between atoms: C_9  and  C_12
REMARK    7  A    between atoms: C_12  and  N_13
REMARK    8  A    between atoms: N_13  and  C_14
REMARK    9  A    between atoms: N_13  and  C_15
REMARK   10  A    between atoms: C_15  and  C_16
REMARK   11  A    between atoms: C_25  and  C_27
REMARK   12  A    between atoms: C_30  and  C_32
REMARK                            x       y       z     vdW  Elec       q    Type
REMARK                         _______ _______ _______ _____ _____    ______ ____
ROOT
ATOM      1  N   UNL     1       7.996   5.237  22.168  0.00  0.00    -0.309 N 
ATOM      2  C   UNL     1       6.934   4.443  22.482  0.00  0.00    +0.203 A 
ATOM      3  N   UNL     1       5.611   4.626  21.964  0.00  0.00    -0.251 N 
ATOM      4  H   UNL     1       5.110   3.779  21.617  0.00  0.00    +0.158 HD
ATOM      5  C   UNL     1       4.867   5.833  22.177  0.00  0.00    +0.257 C 
ATOM      6  O   UNL     1       5.310   6.717  22.960  0.00  0.00    -0.269 OA
ATOM      7  N   UNL     1       7.243   3.409  23.304  0.00  0.00    -0.214 NA
ATOM      8  C   UNL     1       8.556   3.591  23.529  0.00  0.00    +0.091 A 
ATOM      9  C   UNL     1       9.395   2.806  24.315  0.00  0.00    +0.034 A 
ATOM     10  C   UNL     1      10.755   3.174  24.413  0.00  0.00    -0.031 A 
ATOM     11  C   UNL     1      11.227   4.309  23.702  0.00  0.00    +0.007 A 
ATOM     12  C   UNL     1      10.354   5.075  22.910  0.00  0.00    +0.028 A 
ATOM     13  C   UNL     1       9.015   4.683  22.851  0.00  0.00    +0.070 A 
ENDROOT
BRANCH   5  14
ATOM     14  C   UNL     1       3.571   6.042  21.510  0.00  0.00    +0.075 A 
ATOM     15  S   UNL     1       3.325   6.169  19.849  0.00  0.00    -0.084 S 
ATOM     16  C   UNL     1       1.658   6.382  19.929  0.00  0.00    +0.023 A 
ATOM     17  C   UNL     1       1.272   6.360  21.265  0.00  0.00    +0.017 A 
ATOM     18  C   UNL     1       2.341   6.171  22.148  0.00  0.00    +0.021 A 
BRANCH  16  19
ATOM     19  C   UNL     1       0.765   6.551  18.772  0.00  0.00    +0.026 A 
ATOM     20  C   UNL     1      -0.190   5.663  18.315  0.00  0.00    +0.143 A 
ATOM     21  N   UNL     1      -0.804   6.191  17.238  0.00  0.00    -0.182 NA
ATOM     22  N   UNL     1      -0.265   7.378  17.005  0.00  0.00    -0.284 N 
ATOM     23  H   UNL     1      -0.552   8.010  16.226  0.00  0.00    +0.188 HD
ATOM     24  C   UNL     1       0.691   7.630  17.916  0.00  0.00    +0.114 A 
ENDBRANCH  16  19
ENDBRANCH   5  14
BRANCH   1  25
ATOM     25  C   UNL     1       8.067   6.332  21.189  0.00  0.00    +0.159 C 
BRANCH  25  27
ATOM     26  C   UNL     1       9.590   5.596  19.333  0.00  0.00    +0.043 C 
ATOM     27  C   UNL     1       8.117   5.813  19.730  0.00  0.00    +0.078 C 
ATOM     28  C   UNL     1       7.472   6.832  18.769  0.00  0.00    +0.043 C 
BRANCH  27  29
ATOM     29  O   UNL     1       7.430   4.587  19.658  0.00  0.00    -0.387 OA
ATOM     30  H   UNL     1       6.701   4.602  20.333  0.00  0.00    +0.210 HD
ENDBRANCH  27  29
ENDBRANCH  25  27
ENDBRANCH   1  25
BRANCH  10  31
ATOM     31  C   UNL     1      11.705   2.359  25.266  0.00  0.00    +0.119 C 
BRANCH  31  32
ATOM     32  N   UNL     1      11.080   1.805  26.490  0.00  0.00    -0.297 NA
ATOM     33  C   UNL     1      10.641   2.865  27.417  0.00  0.00    +0.105 C 
BRANCH  32  34
ATOM     34  C   UNL     1      11.937   0.808  27.161  0.00  0.00    +0.121 C 
BRANCH  34  35
ATOM     35  C   UNL     1      11.810  -0.535  26.493  0.00  0.00    -0.015 A 
ATOM     36  C   UNL     1      10.602  -1.246  26.527  0.00  0.00    +0.008 A 
ATOM     37  C   UNL     1      10.497  -2.477  25.877  0.00  0.00    +0.020 A 
ATOM     38  C   UNL     1      11.604  -2.986  25.195  0.00  0.00    +0.111 A 
ATOM     39  N   UNL     1      12.767  -2.284  25.164  0.00  0.00    -0.263 NA
ATOM     40  C   UNL     1      12.893  -1.082  25.788  0.00  0.00    +0.115 A 
ENDBRANCH  34  35
ENDBRANCH  32  34
ENDBRANCH  31  32
ENDBRANCH  10  31
TORSDOF 9
ENDMDL
MODEL 6
REMARK VINA RESULT:    -8.036      1.708      2.185
REMARK INTER + INTRA:         -12.921
REMARK INTER:                 -11.753
REMARK INTRA:                  -1.168
REMARK UNBOUND:                -0.891
REMARK  Name = 
REMARK  12 active torsions:
REMARK  status: ('A' for Active; 'I' for Inactive)
REMARK    1  A    between atoms: C_1  and  C_2
REMARK    2  A    between atoms: C_2  and  C_3
REMARK    3  A    between atoms: C_2  and  C_4
REMARK    4  A    between atoms: C_2  and  O_37
REMARK    5  A    between atoms: C_4  and  N_5
REMARK    6  A    between atoms: C_9  and  C_12
REMARK    7  A    between atoms: C_12  and  N_13
REMARK    8  A    between atoms: N_13  and  C_14
REMARK    9  A    between atoms: N_13  and  C_15
REMARK   10  A    between atoms: C_15  and  C_16
REMARK   11  A    between atoms: C_25  and  C_27
REMARK   12  A    between atoms: C_30  and  C_32
REMARK                            x       y       z     vdW  Elec       q    Type
REMARK                         _______ _______ _______ _____ _____    ______ ____
ROOT
ATOM      1  N   UNL     1       9.365   6.945  18.120  0.00  0.00    -0.309 N 
ATOM      2  C   UNL     1       9.182   5.850  18.910  0.00  0.00    +0.203 A 
ATOM      3  N   UNL     1       8.006   5.608  19.690  0.00  0.00    -0.251 N 
ATOM      4  H   UNL     1       7.594   4.650  19.653  0.00  0.00    +0.158 HD
ATOM      5  C   UNL     1       7.567   6.512  20.713  0.00  0.00    +0.257 C 
ATOM      6  O   UNL     1       8.300   7.482  21.053  0.00  0.00    -0.269 OA
ATOM      7  N   UNL     1      10.204   4.959  18.861  0.00  0.00    -0.214 NA
ATOM      8  C   UNL     1      11.072   5.547  18.020  0.00  0.00    +0.091 A 
ATOM      9  C   UNL     1      12.308   5.060  17.606  0.00  0.00    +0.034 A 
ATOM     10  C   UNL     1      13.065   5.842  16.705  0.00  0.00    -0.031 A 
ATOM     11  C   UNL     1      12.543   7.076  16.238  0.00  0.00    +0.007 A 
ATOM     12  C   UNL     1      11.285   7.534  16.670  0.00  0.00    +0.028 A 
ATOM     13  C   UNL     1      10.576   6.736  17.570  0.00  0.00    +0.070 A 
ENDROOT
BRANCH   5  14
ATOM     14  C   UNL     1       6.278   6.305  21.395  0.00  0.00    +0.075 A 
ATOM     15  S   UNL     1       4.914   5.580  20.725  0.00  0.00    -0.084 S 
ATOM     16  C   UNL     1       3.942   5.731  22.090  0.00  0.00    +0.023 A 
ATOM     17  C   UNL     1       4.676   6.359  23.091  0.00  0.00    +0.017 A 
ATOM     18  C   UNL     1       5.982   6.681  22.701  0.00  0.00    +0.021 A 
BRANCH  16  19
ATOM     19  C   UNL     1       2.551   5.263  22.200  0.00  0.00    +0.026 A 
ATOM     20  C   UNL     1       1.448   5.753  21.527  0.00  0.00    +0.143 A 
ATOM     21  N   UNL     1       0.359   5.051  21.894  0.00  0.00    -0.182 NA
ATOM     22  N   UNL     1       0.742   4.139  22.775  0.00  0.00    -0.284 N 
ATOM     23  H   UNL     1       0.099   3.453  23.228  0.00  0.00    +0.188 HD
ATOM     24  C   UNL     1       2.067   4.238  22.985  0.00  0.00    +0.114 A 
ENDBRANCH  16  19
ENDBRANCH   5  14
BRANCH   1  25
ATOM     25  C   UNL     1       8.411   8.018  17.800  0.00  0.00    +0.159 C 
BRANCH  25  27
ATOM     26  C   UNL     1       7.883   8.008  15.345  0.00  0.00    +0.043 C 
ATOM     27  C   UNL     1       7.374   7.582  16.735  0.00  0.00    +0.078 C 
ATOM     28  C   UNL     1       6.008   8.246  17.005  0.00  0.00    +0.043 C 
BRANCH  27  29
ATOM     29  O   UNL     1       7.241   6.182  16.773  0.00  0.00    -0.387 OA
ATOM     30  H   UNL     1       6.359   5.966  17.177  0.00  0.00    +0.210 HD
ENDBRANCH  27  29
ENDBRANCH  25  27
ENDBRANCH   1  25
BRANCH  10  31
ATOM     31  C   UNL     1      14.423   5.361  16.235  0.00  0.00    +0.119 C 
BRANCH  31  32
ATOM     32  N   UNL     1      14.538   5.251  14.762  0.00  0.00    -0.297 NA
ATOM     33  C   UNL     1      14.422   3.856  14.299  0.00  0.00    +0.105 C 
BRANCH  32  34
ATOM     34  C   UNL     1      15.756   5.904  14.241  0.00  0.00    +0.121 C 
BRANCH  34  35
ATOM     35  C   UNL     1      15.515   6.444  12.856  0.00  0.00    -0.015 A 
ATOM     36  C   UNL     1      14.390   7.232  12.575  0.00  0.00    +0.008 A 
ATOM     37  C   UNL     1      14.200   7.745  11.291  0.00  0.00    +0.020 A 
ATOM     38  C   UNL     1      15.141   7.467  10.297  0.00  0.00    +0.111 A 
ATOM     39  N   UNL     1      16.230   6.707  10.585  0.00  0.00    -0.263 NA
ATOM     40  C   UNL     1      16.438   6.197  11.829  0.00  0.00    +0.115 A 
ENDBRANCH  34  35
ENDBRANCH  32  34
ENDBRANCH  31  32
ENDBRANCH  10  31
TORSDOF 9
ENDMDL
MODEL 7
REMARK VINA RESULT:    -7.949      5.476      9.610
REMARK INTER + INTRA:         -12.790
REMARK INTER:                 -12.009
REMARK INTRA:                  -0.782
REMARK UNBOUND:                -0.891
REMARK  Name = 
REMARK  12 active torsions:
REMARK  status: ('A' for Active; 'I' for Inactive)
REMARK    1  A    between atoms: C_1  and  C_2
REMARK    2  A    between atoms: C_2  and  C_3
REMARK    3  A    between atoms: C_2  and  C_4
REMARK    4  A    between atoms: C_2  and  O_37
REMARK    5  A    between atoms: C_4  and  N_5
REMARK    6  A    between atoms: C_9  and  C_12
REMARK    7  A    between atoms: C_12  and  N_13
REMARK    8  A    between atoms: N_13  and  C_14
REMARK    9  A    between atoms: N_13  and  C_15
REMARK   10  A    between atoms: C_15  and  C_16
REMARK   11  A    between atoms: C_25  and  C_27
REMARK   12  A    between atoms: C_30  and  C_32
REMARK                            x       y       z     vdW  Elec       q    Type
REMARK                         _______ _______ _______ _____ _____    ______ ____
ROOT
ATOM      1  N   UNL     1       7.326   5.945  20.294  0.00  0.00    -0.309 N 
ATOM      2  C   UNL     1       7.075   6.226  21.604  0.00  0.00    +0.203 A 
ATOM      3  N   UNL     1       7.689   5.547  22.705  0.00  0.00    -0.251 N 
ATOM      4  H   UNL     1       8.056   6.133  23.486  0.00  0.00    +0.158 HD
ATOM      5  C   UNL     1       7.550   4.133  22.905  0.00  0.00    +0.257 C 
ATOM      6  O   UNL     1       6.752   3.471  22.186  0.00  0.00    -0.269 OA
ATOM      7  N   UNL     1       6.215   7.260  21.790  0.00  0.00    -0.214 NA
ATOM      8  C   UNL     1       5.900   7.615  20.533  0.00  0.00    +0.091 A 
ATOM      9  C   UNL     1       5.044   8.637  20.134  0.00  0.00    +0.034 A 
ATOM     10  C   UNL     1       4.856   8.847  18.749  0.00  0.00    -0.031 A 
ATOM     11  C   UNL     1       5.550   8.033  17.816  0.00  0.00    +0.007 A 
ATOM     12  C   UNL     1       6.415   7.014  18.254  0.00  0.00    +0.028 A 
ATOM     13  C   UNL     1       6.562   6.833  19.631  0.00  0.00    +0.070 A 
ENDROOT
BRANCH   5  14
ATOM     14  C   UNL     1       8.311   3.448  23.963  0.00  0.00    +0.075 A 
ATOM     15  S   UNL     1       9.893   2.887  23.834  0.00  0.00    -0.084 S 
ATOM     16  C   UNL     1       9.993   2.270  25.396  0.00  0.00    +0.023 A 
ATOM     17  C   UNL     1       8.780   2.492  26.039  0.00  0.00    +0.017 A 
ATOM     18  C   UNL     1       7.840   3.149  25.237  0.00  0.00    +0.021 A 
BRANCH  16  19
ATOM     19  C   UNL     1      11.176   1.616  25.978  0.00  0.00    +0.026 A 
ATOM     20  C   UNL     1      12.075   0.787  25.335  0.00  0.00    +0.143 A 
ATOM     21  N   UNL     1      13.023   0.401  26.210  0.00  0.00    -0.182 NA
ATOM     22  N   UNL     1      12.748   0.959  27.379  0.00  0.00    -0.284 N 
ATOM     23  H   UNL     1      13.323   0.831  28.241  0.00  0.00    +0.188 HD
ATOM     24  C   UNL     1      11.634   1.704  27.276  0.00  0.00    +0.114 A 
ENDBRANCH  16  19
ENDBRANCH   5  14
BRANCH   1  25
ATOM     25  C   UNL     1       8.315   5.017  19.727  0.00  0.00    +0.159 C 
BRANCH  25  27
ATOM     26  C   UNL     1       9.690   7.114  19.585  0.00  0.00    +0.043 C 
ATOM     27  C   UNL     1       9.754   5.587  19.783  0.00  0.00    +0.078 C 
ATOM     28  C   UNL     1      10.629   4.964  18.677  0.00  0.00    +0.043 C 
BRANCH  27  29
ATOM     29  O   UNL     1      10.308   5.305  21.046  0.00  0.00    -0.387 OA
ATOM     30  H   UNL     1      11.092   4.710  20.913  0.00  0.00    +0.210 HD
ENDBRANCH  27  29
ENDBRANCH  25  27
ENDBRANCH   1  25
BRANCH  10  31
ATOM     31  C   UNL     1       3.924   9.939  18.265  0.00  0.00    +0.119 C 
BRANCH  31  32
ATOM     32  N   UNL     1       2.489   9.621  18.451  0.00  0.00    -0.297 NA
ATOM     33  C   UNL     1       1.612  10.606  17.788  0.00  0.00    +0.105 C 
BRANCH  32  34
ATOM     34  C   UNL     1       2.130   9.434  19.871  0.00  0.00    +0.121 C 
BRANCH  34  35
ATOM     35  C   UNL     1       1.512   8.079  20.087  0.00  0.00    -0.015 A 
ATOM     36  C   UNL     1       1.008   7.336  19.009  0.00  0.00    +0.008 A 
ATOM     37  C   UNL     1       0.464   6.070  19.228  0.00  0.00    +0.020 A 
ATOM     38  C   UNL     1       0.431   5.554  20.525  0.00  0.00    +0.111 A 
ATOM     39  N   UNL     1       0.929   6.282  21.560  0.00  0.00    -0.263 NA
ATOM     40  C   UNL     1       1.466   7.517  21.372  0.00  0.00    +0.115 A 
ENDBRANCH  34  35
ENDBRANCH  32  34
ENDBRANCH  31  32
ENDBRANCH  10  31
TORSDOF 9
ENDMDL
MODEL 8
REMARK VINA RESULT:    -7.882      4.942     10.793
REMARK INTER + INTRA:         -12.690
REMARK INTER:                 -11.394
REMARK INTRA:                  -1.297
REMARK UNBOUND:                -0.891
REMARK  Name = 
REMARK  12 active torsions:
REMARK  status: ('A' for Active; 'I' for Inactive)
REMARK    1  A    between atoms: C_1  and  C_2
REMARK    2  A    between atoms: C_2  and  C_3
REMARK    3  A    between atoms: C_2  and  C_4
REMARK    4  A    between atoms: C_2  and  O_37
REMARK    5  A    between atoms: C_4  and  N_5
REMARK    6  A    between atoms: C_9  and  C_12
REMARK    7  A    between atoms: C_12  and  N_13
REMARK    8  A    between atoms: N_13  and  C_14
REMARK    9  A    between atoms: N_13  and  C_15
REMARK   10  A    between atoms: C_15  and  C_16
REMARK   11  A    between atoms: C_25  and  C_27
REMARK   12  A    between atoms: C_30  and  C_32
REMARK                            x       y       z     vdW  Elec       q    Type
REMARK                         _______ _______ _______ _____ _____    ______ ____
ROOT
ATOM      1  N   UNL     1       7.833   6.341  20.543  0.00  0.00    -0.309 N 
ATOM      2  C   UNL     1       7.824   7.277  21.534  0.00  0.00    +0.203 A 
ATOM      3  N   UNL     1       8.943   7.562  22.381  0.00  0.00    -0.251 N 
ATOM      4  H   UNL     1       9.179   8.566  22.542  0.00  0.00    +0.158 HD
ATOM      5  C   UNL     1       9.537   6.566  23.225  0.00  0.00    +0.257 C 
ATOM      6  O   UNL     1       8.988   5.437  23.350  0.00  0.00    -0.269 OA
ATOM      7  N   UNL     1       6.661   7.970  21.627  0.00  0.00    -0.214 NA
ATOM      8  C   UNL     1       5.907   7.415  20.662  0.00  0.00    +0.091 A 
ATOM      9  C   UNL     1       4.602   7.751  20.313  0.00  0.00    +0.034 A 
ATOM     10  C   UNL     1       3.991   7.041  19.256  0.00  0.00    -0.031 A 
ATOM     11  C   UNL     1       4.720   6.030  18.576  0.00  0.00    +0.007 A 
ATOM     12  C   UNL     1       6.040   5.722  18.950  0.00  0.00    +0.028 A 
ATOM     13  C   UNL     1       6.602   6.440  20.008  0.00  0.00    +0.070 A 
ENDROOT
BRANCH   5  14
ATOM     14  C   UNL     1      10.773   6.857  23.972  0.00  0.00    +0.075 A 
ATOM     15  S   UNL     1      11.970   7.949  23.512  0.00  0.00    -0.084 S 
ATOM     16  C   UNL     1      12.969   7.691  24.842  0.00  0.00    +0.023 A 
ATOM     17  C   UNL     1      12.376   6.738  25.664  0.00  0.00    +0.017 A 
ATOM     18  C   UNL     1      11.149   6.272  25.177  0.00  0.00    +0.021 A 
BRANCH  16  19
ATOM     19  C   UNL     1      14.249   8.372  25.089  0.00  0.00    +0.026 A 
ATOM     20  C   UNL     1      15.196   8.740  24.151  0.00  0.00    +0.143 A 
ATOM     21  N   UNL     1      16.221   9.351  24.776  0.00  0.00    -0.182 NA
ATOM     22  N   UNL     1      15.948   9.378  26.072  0.00  0.00    -0.284 N 
ATOM     23  H   UNL     1      16.574   9.796  26.795  0.00  0.00    +0.188 HD
ATOM     24  C   UNL     1      14.759   8.793  26.299  0.00  0.00    +0.114 A 
ENDBRANCH  16  19
ENDBRANCH   5  14
BRANCH   1  25
ATOM     25  C   UNL     1       8.959   5.533  20.053  0.00  0.00    +0.159 C 
BRANCH  25  27
ATOM     26  C   UNL     1       9.815   6.086  17.757  0.00  0.00    +0.043 C 
ATOM     27  C   UNL     1       9.987   6.379  19.260  0.00  0.00    +0.078 C 
ATOM     28  C   UNL     1      11.426   6.027  19.689  0.00  0.00    +0.043 C 
BRANCH  27  29
ATOM     29  O   UNL     1       9.737   7.743  19.499  0.00  0.00    -0.387 OA
ATOM     30  H   UNL     1       8.778   7.919  19.305  0.00  0.00    +0.210 HD
ENDBRANCH  27  29
ENDBRANCH  25  27
ENDBRANCH   1  25
BRANCH  10  31
ATOM     31  C   UNL     1       2.568   7.361  18.847  0.00  0.00    +0.119 C 
BRANCH  31  32
ATOM     32  N   UNL     1       1.558   6.463  19.453  0.00  0.00    -0.297 NA
ATOM     33  C   UNL     1       0.378   6.287  18.586  0.00  0.00    +0.105 C 
BRANCH  32  34
ATOM     34  C   UNL     1       1.179   6.878  20.819  0.00  0.00    +0.121 C 
BRANCH  34  35
ATOM     35  C   UNL     1       1.574   5.826  21.821  0.00  0.00    -0.015 A 
ATOM     36  C   UNL     1       2.770   5.932  22.544  0.00  0.00    +0.008 A 
ATOM     37  C   UNL     1       3.104   4.960  23.488  0.00  0.00    +0.020 A 
ATOM     38  C   UNL     1       2.235   3.888  23.703  0.00  0.00    +0.111 A 
ATOM     39  N   UNL     1       1.075   3.801  23.000  0.00  0.00    -0.263 NA
ATOM     40  C   UNL     1       0.727   4.737  22.076  0.00  0.00    +0.115 A 
ENDBRANCH  34  35
ENDBRANCH  32  34
ENDBRANCH  31  32
ENDBRANCH  10  31
TORSDOF 9
ENDMDL
MODEL 9
REMARK VINA RESULT:    -7.831      7.640     11.253
REMARK INTER + INTRA:         -12.613
REMARK INTER:                 -11.375
REMARK INTRA:                  -1.238
REMARK UNBOUND:                -0.891
REMARK  Name = 
REMARK  12 active torsions:
REMARK  status: ('A' for Active; 'I' for Inactive)
REMARK    1  A    between atoms: C_1  and  C_2
REMARK    2  A    between atoms: C_2  and  C_3
REMARK    3  A    between atoms: C_2  and  C_4
REMARK    4  A    between atoms: C_2  and  O_37
REMARK    5  A    between atoms: C_4  and  N_5
REMARK    6  A    between atoms: C_9  and  C_12
REMARK    7  A    between atoms: C_12  and  N_13
REMARK    8  A    between atoms: N_13  and  C_14
REMARK    9  A    between atoms: N_13  and  C_15
REMARK   10  A    between atoms: C_15  and  C_16
REMARK   11  A    between atoms: C_25  and  C_27
REMARK   12  A    between atoms: C_30  and  C_32
REMARK                            x       y       z     vdW  Elec       q    Type
REMARK                         _______ _______ _______ _____ _____    ______ ____
ROOT
ATOM      1  N   UNL     1       8.995   4.644  24.341  0.00  0.00    -0.309 N 
ATOM      2  C   UNL     1       8.440   3.440  24.028  0.00  0.00    +0.203 A 
ATOM      3  N   UNL     1       8.813   2.199  24.637  0.00  0.00    -0.251 N 
ATOM      4  H   UNL     1       8.044   1.563  24.943  0.00  0.00    +0.158 HD
ATOM      5  C   UNL     1      10.150   1.684  24.568  0.00  0.00    +0.257 C 
ATOM      6  O   UNL     1      11.006   2.251  23.834  0.00  0.00    -0.269 OA
ATOM      7  N   UNL     1       7.446   3.514  23.107  0.00  0.00    -0.214 NA
ATOM      8  C   UNL     1       7.405   4.827  22.819  0.00  0.00    +0.091 A 
ATOM      9  C   UNL     1       6.555   5.469  21.924  0.00  0.00    +0.034 A 
ATOM     10  C   UNL     1       6.676   6.868  21.776  0.00  0.00    -0.031 A 
ATOM     11  C   UNL     1       7.636   7.575  22.547  0.00  0.00    +0.007 A 
ATOM     12  C   UNL     1       8.474   6.895  23.449  0.00  0.00    +0.028 A 
ATOM     13  C   UNL     1       8.329   5.511  23.556  0.00  0.00    +0.070 A 
ENDROOT
BRANCH   5  14
ATOM     14  C   UNL     1      10.530   0.480  25.326  0.00  0.00    +0.075 A 
ATOM     15  S   UNL     1      11.142  -0.945  24.671  0.00  0.00    -0.084 S 
ATOM     16  C   UNL     1      11.302  -1.761  26.134  0.00  0.00    +0.023 A 
ATOM     17  C   UNL     1      10.872  -0.924  27.158  0.00  0.00    +0.017 A 
ATOM     18  C   UNL     1      10.440   0.328  26.706  0.00  0.00    +0.021 A 
BRANCH  16  19
ATOM     19  C   UNL     1      11.823  -3.128  26.293  0.00  0.00    +0.026 A 
ATOM     20  C   UNL     1      12.762  -3.565  27.208  0.00  0.00    +0.143 A 
ATOM     21  N   UNL     1      12.960  -4.886  27.039  0.00  0.00    -0.182 NA
ATOM     22  N   UNL     1      12.178  -5.292  26.050  0.00  0.00    -0.284 N 
ATOM     23  H   UNL     1      12.128  -6.276  25.707  0.00  0.00    +0.188 HD
ATOM     24  C   UNL     1      11.472  -4.251  25.574  0.00  0.00    +0.114 A 
ENDBRANCH  16  19
ENDBRANCH   5  14
BRANCH   1  25
ATOM     25  C   UNL     1       9.965   4.961  25.400  0.00  0.00    +0.159 C 
BRANCH  25  27
ATOM     26  C   UNL     1      12.444   4.641  25.642  0.00  0.00    +0.043 C 
ATOM     27  C   UNL     1      11.349   5.358  24.829  0.00  0.00    +0.078 C 
ATOM     28  C   UNL     1      11.558   6.884  24.924  0.00  0.00    +0.043 C 
BRANCH  27  29
ATOM     29  O   UNL     1      11.423   4.948  23.485  0.00  0.00    -0.387 OA
ATOM     30  H   UNL     1      12.027   5.574  23.005  0.00  0.00    +0.210 HD
ENDBRANCH  27  29
ENDBRANCH  25  27
ENDBRANCH   1  25
BRANCH  10  31
ATOM     31  C   UNL     1       5.782   7.611  20.804  0.00  0.00    +0.119 C 
BRANCH  31  32
ATOM     32  N   UNL     1       4.583   6.843  20.392  0.00  0.00    -0.297 NA
ATOM     33  C   UNL     1       4.430   6.797  18.926  0.00  0.00    +0.105 C 
BRANCH  32  34
ATOM     34  C   UNL     1       3.353   7.316  21.059  0.00  0.00    +0.121 C 
BRANCH  34  35
ATOM     35  C   UNL     1       2.662   6.178  21.762  0.00  0.00    -0.015 A 
ATOM     36  C   UNL     1       3.265   5.530  22.850  0.00  0.00    +0.008 A 
ATOM     37  C   UNL     1       2.594   4.496  23.505  0.00  0.00    +0.020 A 
ATOM     38  C   UNL     1       1.324   4.119  23.067  0.00  0.00    +0.111 A 
ATOM     39  N   UNL     1       0.748   4.759  22.015  0.00  0.00    -0.263 NA
ATOM     40  C   UNL     1       1.380   5.771  21.362  0.00  0.00    +0.115 A 
ENDBRANCH  34  35
ENDBRANCH  32  34
ENDBRANCH  31  32
ENDBRANCH  10  31
TORSDOF 9
ENDMDL
